ITEM: TIMESTEP
0
ITEM: NUMBER OF ATOMS
3301
ITEM: BOX BOUNDS xy xz yz pp pp ff
-3.4438062157660534e+00 1.4327664291249942e+01 -3.4350542435438398e+00
-1.1437014825976935e-02 1.8912401275942358e+01 0.0000000000000000e+00
-1.2150000000000000e+02 1.2150000000000000e+02 0.0000000000000000e+00
ITEM: ATOMS id type x y z c_csym c_eng 
1 2 11.5242 8.4984 0.143865 5.74699 -3.33466 
2 2 2.32147 1.69173 0.334554 7.63681 -3.36064 
3 2 10.8572 18.7111 0.904549 11.2617 -3.10596 
4 2 8.561 17.2355 0.110832 6.20939 -3.36623 
5 2 -0.5229 10.2258 0.12433 5.95429 -3.34701 
6 2 9.16389 6.83647 0.12052 5.42569 -3.35493 
7 2 6.85608 5.10621 0.102761 5.35722 -3.34974 
8 2 4.49345 3.46149 0.0432366 5.70925 -3.36524 
9 2 6.31816 15.4883 0.102206 5.51739 -3.3474 
10 2 4.05349 13.6982 0.130558 5.64922 -3.35102 
11 2 1.77628 11.9399 0.122444 5.871 -3.35378 
12 2 11.5123 6.11639 -1.21824 2.69893 -3.28845 
13 2 -0.897057 18.029 -1.3398 6.7852 -3.202 
14 2 10.9266 16.607 -1.22985 4.14924 -3.31737 
15 2 8.63145 14.7134 -1.18805 2.65688 -3.28257 
16 2 -0.522378 7.83035 -1.22811 2.86649 -3.2662 
17 2 9.23643 4.40892 -1.21392 2.62632 -3.28382 
18 2 6.94699 2.69198 -1.22288 2.71827 -3.28164 
19 2 4.63913 0.988356 -1.22798 3.70744 -3.27762 
20 2 6.36179 13.0036 -1.1911 2.89578 -3.25377 
21 2 4.08954 11.2517 -1.20705 3.10649 -3.27619 
22 2 1.77657 9.51823 -1.23682 3.12884 -3.26939 
23 2 11.8361 3.32621 -1.85436 0.447366 -3.28746 
24 2 -0.769324 15.3223 -1.80192 3.77196 -3.29345 
25 2 11.2357 13.6357 -1.78581 4.25079 -3.29968 
26 2 8.93056 11.8778 -1.7538 2.9799 -3.27979 
27 2 -0.21722 5.12315 -1.84357 0.57882 -3.27455 
28 2 9.67567 1.60138 -1.83628 0.452825 -3.31386 
29 2 3.96175 18.8378 -1.78338 0.919526 -3.31545 
30 2 1.68557 17.0835 -1.77978 1.70645 -3.29947 
31 2 6.62612 10.1083 -1.73495 1.77849 -3.29916 
32 2 4.33601 8.35129 -1.7861 0.950342 -3.31424 
33 2 2.06918 6.67851 -1.84843 0.475221 -3.30874 
34 2 12.2625 0.386583 -2.42507 2.13611 -3.34588 
35 2 -0.424453 12.4652 -1.96929 5.52674 -3.38013 
36 2 11.6271 10.7697 -1.9573 5.54691 -3.39686 
37 2 9.36694 9.05256 -1.96463 5.41884 -3.39258 
38 2 0.0416005 2.62441 -2.6813 8.56381 -3.06277 
39 2 6.48911 17.5716 -2.16717 1.5671 -3.36076 
40 2 4.18287 15.8421 -2.04399 2.79986 -3.37533 
41 2 1.85809 14.1614 -1.98581 5.49164 -3.39804 
42 2 7.11493 7.33147 -2.04587 2.86137 -3.37346 
43 2 4.84392 5.58611 -2.16689 1.81886 -3.35367 
44 2 2.54492 3.90086 -2.32875 1.55299 -3.33312 
45 2 8.99169 16.6165 -3.11553 0.873988 -3.30842 
46 2 -0.223558 9.83214 -3.06239 1.20574 -3.31849 
47 2 11.8292 8.10313 -3.07115 1.15074 -3.32179 
48 2 9.55473 6.3803 -3.07718 0.975837 -3.31157 
49 2 -2.95211 18.1434 -3.41377 3.50284 -3.18759 
50 2 6.69136 14.9256 -3.08143 0.862735 -3.30051 
51 2 4.38343 13.2206 -3.06164 1.08494 -3.31551 
52 2 2.08512 11.5237 -3.0558 1.16161 -3.32367 
53 2 7.28128 4.63886 -3.09234 0.852326 -3.31478 
54 2 4.99164 2.88513 -3.11553 0.654464 -3.30108 
55 2 2.62405 1.17231 -3.10596 5.1067 -3.35365 
56 2 9.3169 13.7865 -3.74521 0.0837145 -3.32716 
57 2 0.13673 7.02014 -3.80217 0.0936623 -3.33204 
58 2 12.2001 5.24019 -3.80249 0.112576 -3.33679 
59 2 9.88091 3.53702 -3.79163 0.0499081 -3.33189 
60 2 -2.67863 15.447 -3.79156 0.290622 -3.3207 
61 2 7.01754 12.0681 -3.72263 0.0678399 -3.32979 
62 2 4.73005 10.3572 -3.7337 0.0685648 -3.3321 
63 2 2.43808 8.67462 -3.77209 0.0717322 -3.33532 
64 2 7.62789 1.79316 -3.76883 0.0611311 -3.33454 
65 2 5.33721 0.0552905 -3.75022 0.103316 -3.33138 
66 2 -0.298303 17.1582 -3.84186 0.452686 -3.31731 
67 2 9.6782 10.9599 -4.24117 0.473772 -3.35647 
68 2 0.523787 4.29929 -4.53825 0.769128 -3.2626 
69 2 12.4352 2.41559 -4.47382 0.377578 -3.3349 
70 2 10.2126 0.65385 -4.35698 0.187305 -3.34705 
71 2 11.9805 12.6528 -4.25169 0.543874 -3.34511 
72 2 7.38831 9.25102 -4.24023 0.402665 -3.35587 
73 2 5.10075 7.54477 -4.29129 0.288709 -3.35565 
74 2 2.81987 5.87204 -4.35859 0.201739 -3.35753 
75 2 4.51057 17.8442 -4.28367 0.298757 -3.36024 
76 2 2.26611 16.0921 -4.2778 0.462606 -3.34656 
77 2 -0.0410921 14.361 -4.27906 0.491008 -3.35578 
78 2 9.9072 8.28014 -5.01664 0.218633 -3.31796 
79 2 0.724857 1.37934 -5.11814 0.384915 -3.34181 
80 2 9.33251 18.5641 -5.13013 0.170931 -3.32689 
81 2 7.04514 16.8431 -5.04277 0.114067 -3.32583 
82 2 12.2022 9.98754 -5.02234 0.230901 -3.3133 
83 2 7.624 6.55687 -5.02155 0.161728 -3.32114 
84 2 5.33843 4.821 -5.03949 0.101041 -3.32737 
85 2 3.03545 3.08693 -5.06802 0.102432 -3.31936 
86 2 4.76346 15.1245 -5.01838 0.174781 -3.32026 
87 2 2.4716 13.4044 -5.01874 0.216712 -3.32074 
88 2 0.170178 11.6976 -5.02209 0.229122 -3.31625 
89 2 10.2093 5.4874 -5.7191 0.0104376 -3.3472 
90 2 -2.32413 17.4268 -5.85054 0.323441 -3.30645 
91 2 9.67198 15.7741 -5.70735 0.0537777 -3.35752 
92 2 7.3621 14.0482 -5.69117 0.0139541 -3.35426 
93 2 12.5009 7.21072 -5.72339 0.0147307 -3.34375 
94 2 7.9184 3.75048 -5.71837 0.0130396 -3.34974 
95 2 5.63739 2.01186 -5.71277 0.0118864 -3.3568 
96 2 3.33912 0.285273 -5.70744 0.0900486 -3.3595 
97 2 5.0698 12.3321 -5.68335 0.0168901 -3.35347 
98 2 2.77676 10.6287 -5.69541 0.0195499 -3.35078 
99 2 0.47358 8.93739 -5.71814 0.022508 -3.34578 
100 2 10.5023 2.66262 -6.38544 0.0203807 -3.34594 
101 2 -2.05072 14.6414 -6.35102 0.0736416 -3.36429 
102 2 9.97412 12.9594 -6.30902 0.0517094 -3.36412 
103 2 7.68049 11.246 -6.29956 0.0471392 -3.36043 
104 2 12.8083 4.40955 -6.41165 0.03317 -3.35628 
105 2 8.22949 0.921776 -6.34137 0.0315409 -3.35975 
106 2 2.51548 18.1183 -6.32315 0.0441101 -3.36221 
107 2 0.262852 16.3647 -6.37359 0.0879427 -3.34868 
108 2 5.39267 9.53619 -6.31069 0.0394946 -3.35832 
109 2 3.10239 7.83811 -6.3456 0.0293514 -3.35602 
110 2 0.798599 6.17032 -6.41357 0.0724945 -3.32637 
111 2 7.36844 18.8033 -7.03551 0.0101405 -3.33892 
112 2 -1.79397 11.9192 -7.00388 0.0241396 -3.33443 
113 2 10.2418 10.2148 -6.99609 0.020976 -3.33607 
114 2 7.95033 8.49745 -6.99351 0.0191364 -3.33745 
115 2 13.1099 1.61045 -7.07065 0.0100899 -3.34876 
116 2 5.08637 17.0812 -7.00301 0.0128146 -3.34158 
117 2 2.8124 15.354 -7.00679 0.0224085 -3.33736 
118 2 0.515129 13.6287 -7.01344 0.0232415 -3.34076 
119 2 5.66325 6.774 -7.0028 0.010765 -3.33967 
120 2 3.37054 5.05292 -7.02011 0.0132292 -3.34384 
121 2 1.07919 3.33271 -7.07201 0.0454775 -3.34517 
122 2 7.67993 16.0141 -7.67517 0.00473563 -3.36065 
123 2 -1.50531 9.15957 -7.67492 0.00384735 -3.35675 
124 2 10.5321 7.44167 -7.67362 0.00342323 -3.35614 
125 2 8.24125 5.7163 -7.67464 0.00339849 -3.35865 
126 2 9.9711 17.732 -7.72108 0.0228187 -3.35598 
127 2 5.38961 14.2982 -7.66178 0.0028832 -3.35937 
128 2 3.09883 12.582 -7.66265 0.0033569 -3.36138 
129 2 0.799256 10.8729 -7.67101 0.00465225 -3.35839 
130 2 5.95419 3.98644 -7.68026 0.00299535 -3.35896 
131 2 3.66985 2.25758 -7.68909 0.00563283 -3.35751 
132 2 1.37693 0.539474 -7.71857 0.0236053 -3.35475 
133 2 7.98038 13.2288 -8.3127 0.00530415 -3.36019 
134 2 13.1277 6.37855 -8.35728 0.00548732 -3.35804 
135 2 10.8279 4.64928 -8.35114 0.00327521 -3.35593 
136 2 8.53845 2.91695 -8.33929 0.0043978 -3.35625 
137 2 10.2743 14.943 -8.32803 0.00973885 -3.36034 
138 2 5.68955 11.5149 -8.31081 0.00424926 -3.3603 
139 2 3.39773 9.80399 -8.32224 0.00386976 -3.36063 
140 2 1.09954 8.10026 -8.3473 0.00769215 -3.35207 
141 2 6.25445 1.18873 -8.32918 0.00468356 -3.35861 
142 2 0.532216 18.3898 -8.33469 0.00993137 -3.36174 
143 2 -1.75254 16.6483 -8.38205 0.037567 -3.34396 
144 2 8.26665 10.4616 -8.97634 0.00181587 -3.35049 
145 2 13.424 3.58793 -9.02313 0.00239142 -3.35324 
146 2 11.1261 1.85903 -9.01323 0.00231118 -3.35388 
147 2 8.83341 0.133722 -8.99442 0.00144347 -3.3511 
148 2 10.5609 12.1769 -8.98098 0.00198739 -3.34987 
149 2 5.97561 8.74361 -8.97925 0.00147854 -3.35144 
150 2 3.68466 7.02509 -8.99107 0.00191128 -3.35267 
151 2 1.3905 5.30924 -9.0166 0.00696801 -3.3541 
152 2 3.11259 17.3355 -8.98609 0.00178794 -3.3517 
153 2 0.830057 15.6059 -9.00252 0.00489311 -3.34881 
154 2 -1.47292 13.8839 -8.99805 0.0045493 -3.35038 
155 2 8.55669 7.68676 -9.6511 0.00154515 -3.35772 
156 2 13.7192 0.79685 -9.68209 0.00238523 -3.35622 
157 2 7.98375 17.9965 -9.66811 0.00221151 -3.35586 
158 2 5.69525 16.2761 -9.65149 0.00129219 -3.35904 
159 2 10.8507 9.40573 -9.65205 0.00164597 -3.35764 
160 2 6.26585 5.96496 -9.65394 0.00130982 -3.35766 
161 2 3.9757 4.24254 -9.66053 0.00149169 -3.35753 
162 2 1.68305 2.52055 -9.67702 0.00251676 -3.35162 
163 2 3.40872 14.5547 -9.6514 0.00143896 -3.35815 
164 2 1.11424 12.8348 -9.65558 0.00185026 -3.35972 
165 2 -1.1869 11.12 -9.65474 0.00198819 -3.35802 
166 2 8.8478 4.90462 -10.319 0.00148099 -3.35771 
167 2 10.5755 16.9334 -10.3333 0.0035079 -3.35678 
168 2 8.28194 15.2147 -10.3126 0.00133682 -3.35752 
169 2 5.99107 13.4972 -10.3057 0.00114631 -3.35847 
170 2 11.1412 6.62847 -10.3217 0.00172336 -3.35713 
171 2 6.55826 3.17985 -10.3172 0.00136012 -3.35747 
172 2 4.26914 1.4569 -10.3204 0.00132954 -3.35702 
173 2 -1.45909 18.6593 -10.3344 0.00293995 -3.35829 
174 2 3.69915 11.7799 -10.3073 0.00119047 -3.35917 
175 2 1.40316 10.0648 -10.3147 0.00184727 -3.35752 
176 2 -0.896925 8.34887 -10.3212 0.00188271 -3.35795 
177 2 9.14 2.12227 -10.9818 0.000944794 -3.35648 
178 2 10.8674 14.1583 -10.9758 0.000949144 -3.35655 
179 2 8.57281 12.4417 -10.9682 0.00070005 -3.35607 
180 2 6.28017 10.7241 -10.967 0.000680147 -3.35635 
181 2 11.4335 3.84664 -10.9883 0.00126235 -3.35663 
182 2 6.8497 0.399206 -10.9763 0.000765908 -3.35612 
183 2 1.12471 17.6013 -10.9792 0.000844995 -3.35737 
184 2 -1.16901 15.8757 -10.9904 0.00260062 -3.35286 
185 2 3.98755 9.00616 -10.9718 0.000796825 -3.35679 
186 2 1.69291 7.28905 -10.9826 0.00153006 -3.35658 
187 2 -0.60544 5.56965 -10.9896 0.00153159 -3.35687 
188 2 5.99583 18.2666 -11.642 0.000705211 -3.35747 
189 2 11.1561 11.3875 -11.6367 0.000658371 -3.35814 
190 2 8.86128 9.66963 -11.6348 0.000661196 -3.35812 
191 2 6.56839 7.95025 -11.6357 0.000643736 -3.35803 
192 2 11.7247 1.06521 -11.6502 0.000905439 -3.35749 
193 2 3.70563 16.5457 -11.6377 0.000546646 -3.35834 
194 2 1.41456 14.8237 -11.6415 0.000594518 -3.35764 
195 2 -0.882639 13.1036 -11.6414 0.000679158 -3.35815 
196 2 4.27609 6.23 -11.64 0.00066656 -3.35769 
197 2 1.98258 4.50951 -11.6486 0.00106249 -3.35645 
198 2 -0.314658 2.78831 -11.6531 0.00113653 -3.35735 
199 2 6.28794 15.4891 -12.3002 0.000531408 -3.35819 
200 2 11.4451 8.61425 -12.3035 0.000707075 -3.3578 
201 2 9.15041 6.89403 -12.303 0.000678961 -3.35785 
202 2 6.85774 5.17261 -12.303 0.000626181 -3.35805 
203 2 8.58007 17.2093 -12.308 0.000762292 -3.35747 
204 2 3.99641 13.7694 -12.299 0.000490157 -3.35809 
205 2 1.70234 12.0502 -12.3011 0.000591239 -3.35826 
206 2 -0.594431 10.3324 -12.3031 0.000690718 -3.35802 
207 2 4.56592 3.45116 -12.3051 0.000605333 -3.35822 
208 2 2.27233 1.73031 -12.311 0.000735967 -3.35695 
209 2 14.3118 0.00780956 -12.3139 0.000829347 -3.3582 
210 2 6.57763 12.7152 -12.9606 0.000408339 -3.35815 
211 2 11.7341 5.83862 -12.9701 0.00068031 -3.35835 
212 2 9.43956 4.11685 -12.9686 0.000588076 -3.35817 
213 2 7.14692 2.39478 -12.9667 0.000484555 -3.35796 
214 2 8.87076 14.4341 -12.9638 0.00044907 -3.35784 
215 2 4.28448 10.9964 -12.9613 0.000431958 -3.35852 
216 2 1.99005 9.27787 -12.9649 0.000551 -3.35847 
217 2 -0.306077 7.55897 -12.9689 0.000678673 -3.35849 
218 2 4.8549 0.673412 -12.9675 0.000446805 -3.35778 
219 2 -0.873898 17.8759 -12.972 0.000606103 -3.35817 
220 2 11.1656 16.1537 -12.9711 0.000674999 -3.35785 
221 2 6.86523 9.94287 -13.6259 0.000345322 -3.35852 
222 2 12.0229 3.06199 -13.6353 0.000535761 -3.35835 
223 2 9.72832 1.34011 -13.6326 0.00043605 -3.35832 
224 2 4.00054 18.5425 -13.6298 0.000350175 -3.35831 
225 2 9.159 11.662 -13.6265 0.000343183 -3.35845 
226 2 4.57177 8.22335 -13.6277 0.000367043 -3.3585 
227 2 2.27773 6.50361 -13.6317 0.000478278 -3.35823 
228 2 -0.0177427 4.78329 -13.6351 0.000573215 -3.35832 
229 2 1.70813 16.8216 -13.6303 0.000332312 -3.35866 
230 2 -0.586363 15.1003 -13.6323 0.000468369 -3.35777 
231 2 11.4538 13.3807 -13.6292 0.000358202 -3.3586 
232 2 7.15279 7.16923 -14.2932 0.000329424 -3.35882 
233 2 12.3112 0.285615 -14.2988 0.000416515 -3.35869 
234 2 6.58193 17.4882 -14.2953 0.000332373 -3.35857 
235 2 4.28918 15.7678 -14.293 0.000272521 -3.35884 
236 2 9.44667 8.88934 -14.2931 0.000335908 -3.35881 
237 2 4.85946 5.44874 -14.2946 0.000331127 -3.35876 
238 2 2.56564 3.72818 -14.2975 0.000392295 -3.35836 
239 2 0.270387 2.0072 -14.2997 0.000447379 -3.35861 
240 2 1.99583 14.0475 -14.2935 0.000291125 -3.35877 
241 2 -0.299253 12.3277 -14.2941 0.000317815 -3.35883 
242 2 11.7415 10.6088 -14.2935 0.000331685 -3.35886 
243 2 7.44041 4.39455 -14.9597 0.00029267 -3.35881 
244 2 9.16425 16.4344 -14.9608 0.000313075 -3.35867 
245 2 6.87045 14.7143 -14.9577 0.000242528 -3.35877 
246 2 4.57701 12.9945 -14.9569 0.000232468 -3.35884 
247 2 9.73423 6.11546 -14.9601 0.000318637 -3.35886 
248 2 5.1471 2.67364 -14.9602 0.000278035 -3.35878 
249 2 2.85323 0.952895 -14.9621 0.000324665 -3.35866 
250 2 -2.87698 18.1555 -14.963 0.000359283 -3.35891 
251 2 2.28293 11.275 -14.9578 0.000261165 -3.35891 
252 2 -0.0120776 9.55556 -14.9592 0.000305344 -3.35892 
253 2 12.029 7.83587 -14.9601 0.00032943 -3.3589 
254 2 7.72778 1.62017 -15.6255 0.0002361 -3.35896 
255 2 9.45186 13.6617 -15.6239 0.000211394 -3.35898 
256 2 7.15777 11.942 -15.6226 0.000196243 -3.35904 
257 2 4.86388 10.2223 -15.6228 0.000204326 -3.35912 
258 2 10.0216 3.34122 -15.6265 0.00027257 -3.35904 
259 2 1.99931 18.8232 -15.6254 0.000223765 -3.35894 
260 2 -0.294707 17.1024 -15.6264 0.000265395 -3.359 
261 2 -2.58977 15.3817 -15.626 0.000267169 -3.35896 
262 2 2.5697 8.5026 -15.6243 0.000240322 -3.35912 
263 2 0.274911 6.78262 -15.6262 0.000286178 -3.35911 
264 2 12.3162 5.06217 -15.627 0.000298409 -3.35908 
265 2 4.57996 17.7703 -16.2911 0.000188477 -3.35918 
266 2 9.73881 10.8897 -16.29 0.000185312 -3.35927 
267 2 7.44455 9.16985 -16.2898 0.000184433 -3.35929 
268 2 5.15057 7.44975 -16.2904 0.000192501 -3.35927 
269 2 10.3088 0.567221 -16.2924 0.000222925 -3.3592 
270 2 2.28633 16.0498 -16.2908 0.000186123 -3.35927 
271 2 -0.00801374 14.3294 -16.2911 0.000213622 -3.35916 
272 2 12.0335 12.6095 -16.2906 0.0001942 -3.3593 
273 2 2.85647 5.7295 -16.2918 0.000222078 -3.35917 
274 2 0.561849 4.00903 -16.2932 0.000253788 -3.35918 
275 2 12.6033 2.2882 -16.2935 0.000254441 -3.35923 
276 2 4.86702 14.9975 -16.9569 0.000154745 -3.35935 
277 2 10.0255 8.11744 -16.9576 0.000180722 -3.35941 
278 2 7.73125 6.3971 -16.9576 0.00017727 -3.35939 
279 2 5.43729 4.67661 -16.958 0.000178094 -3.35935 
280 2 7.16088 16.7177 -16.958 0.00017568 -3.3593 
281 2 2.57301 13.2774 -16.9569 0.000163225 -3.35937 
282 2 0.278529 11.5574 -16.9572 0.000175046 -3.35941 
283 2 12.3202 9.8375 -16.9575 0.000179821 -3.35943 
284 2 3.14323 2.95607 -16.9589 0.000197316 -3.35928 
285 2 0.848673 1.23538 -16.9597 0.000218199 -3.35936 
286 2 9.45524 18.4384 -16.9593 0.000209894 -3.35937 
287 2 5.15362 12.2254 -17.6239 0.000134395 -3.35947 
288 2 10.3121 5.34475 -17.6256 0.000169984 -3.3595 
289 2 8.01786 3.62412 -17.6254 0.000160412 -3.35946 
290 2 5.7239 1.90349 -17.6254 0.000156048 -3.35943 
291 2 7.44772 13.9454 -17.6243 0.000137732 -3.35944 
292 2 2.85942 10.5054 -17.6242 0.000145032 -3.3595 
293 2 0.564939 8.78537 -17.6249 0.000161338 -3.35952 
294 2 12.6067 7.06519 -17.6255 0.000172085 -3.35952 
295 2 3.4298 0.182896 -17.6258 0.000170216 -3.35944 
296 2 -2.29978 17.3861 -17.626 0.000181034 -3.35949 
297 2 9.74201 15.6656 -17.6253 0.000161993 -3.35943 
298 2 5.43994 9.45347 -18.2921 0.000123906 -3.35962 
299 2 10.5986 2.57195 -18.2937 0.00015148 -3.35961 
300 2 8.30439 0.851312 -18.2932 0.000138425 -3.35958 
301 2 2.57532 18.0546 -18.2929 0.000133654 -3.35957 
302 2 7.73414 11.1736 -18.292 0.000121335 -3.35961 
303 2 3.1457 7.73331 -18.2927 0.000135757 -3.35962 
304 2 0.851276 6.01303 -18.2934 0.000151424 -3.35962 
305 2 12.8931 4.29257 -18.2938 0.000158482 -3.35962 
306 2 0.281133 16.3341 -18.293 0.000143653 -3.35958 
307 2 -2.01338 14.6138 -18.2929 0.000143066 -3.35959 
308 2 10.0285 12.8936 -18.2924 0.00012773 -3.3596 
309 2 5.72619 6.68132 -18.9611 0.000118221 -3.35971 
310 2 7.44998 18.7232 -18.9617 0.00012971 -3.3597 
311 2 5.15579 17.0027 -18.9611 0.00011721 -3.35968 
312 2 2.86168 15.2824 -18.9609 0.000115254 -3.3597 
313 2 8.02042 8.40161 -18.9609 0.000115675 -3.35972 
314 2 3.43197 4.96094 -18.9615 0.000127209 -3.35969 
315 2 1.13759 3.24048 -18.962 0.000138149 -3.3597 
316 2 13.1795 1.51992 -18.9621 0.000140245 -3.35972 
317 2 0.567375 13.5621 -18.9609 0.000121251 -3.35971 
318 2 -1.72712 11.8419 -18.9609 0.000119126 -3.35973 
319 2 10.3148 10.1218 -18.9609 0.000116498 -3.35973 
320 2 6.01242 3.909 -19.6302 0.000109405 -3.35977 
321 2 7.73635 15.951 -19.63 0.000107217 -3.35976 
322 2 5.44211 14.2307 -19.6296 9.96985e-05 -3.35976 
323 2 3.14788 12.5105 -19.6296 0.000101257 -3.35978 
324 2 8.30663 5.62945 -19.6301 0.000109386 -3.35979 
325 2 3.7182 2.18853 -19.6304 0.000114797 -3.35976 
326 2 1.42384 0.468028 -19.6306 0.000121177 -3.35978 
327 2 10.0307 17.6714 -19.6305 0.000118492 -3.35978 
328 2 0.853526 10.7903 -19.6297 0.000106055 -3.3598 
329 2 -1.44095 9.07012 -19.63 0.000109558 -3.35981 
330 2 10.601 7.34984 -19.6301 0.000110618 -3.3598 
331 2 6.29859 1.13676 -20.2995 9.71362e-05 -3.35984 
332 2 8.02255 13.1791 -20.2991 8.99325e-05 -3.35984 
333 2 5.72826 11.4589 -20.2989 8.82569e-05 -3.35985 
334 2 3.43397 9.73871 -20.2991 9.15535e-05 -3.35986 
335 2 8.59281 2.85724 -20.2996 9.90962e-05 -3.35985 
336 2 0.569302 18.3401 -20.2996 9.99636e-05 -3.35984 
337 2 -1.72506 16.6197 -20.2996 0.000102231 -3.35985 
338 2 10.3169 14.8994 -20.2994 9.6999e-05 -3.35984 
339 2 1.13961 8.01846 -20.2994 9.75471e-05 -3.35987 
340 2 13.1816 6.29813 -20.2997 0.000102171 -3.35987 
341 2 10.8871 4.57771 -20.2997 0.000102315 -3.35987 
342 2 3.14967 17.2886 -20.9692 8.42133e-05 -3.3599 
343 2 8.30864 10.4074 -20.9689 8.06209e-05 -3.35992 
344 2 6.01432 8.68712 -20.969 8.12284e-05 -3.35992 
345 2 3.72003 6.96682 -20.9692 8.47667e-05 -3.35992 
346 2 8.87896 0.0851239 -20.9693 8.65927e-05 -3.35991 
347 2 0.855388 15.5682 -20.9691 8.55272e-05 -3.35991 
348 2 -1.43899 13.8479 -20.9691 8.54792e-05 -3.35992 
349 2 10.603 12.1276 -20.969 8.24902e-05 -3.35992 
350 2 1.42568 5.24646 -20.9694 8.98705e-05 -3.35992 
351 2 13.4677 3.52604 -20.9696 9.28264e-05 -3.35993 
352 2 11.1733 1.80558 -20.9695 9.10559e-05 -3.35992 
353 2 3.43574 14.5167 -21.6393 7.25775e-05 -3.35996 
354 2 8.59468 7.63558 -21.6394 7.43059e-05 -3.35997 
355 2 6.30037 5.91522 -21.6395 7.49284e-05 -3.35996 
356 2 4.00607 4.19484 -21.6396 7.72795e-05 -3.35996 
357 2 5.73002 16.237 -21.6394 7.39814e-05 -3.35995 
358 2 1.14142 12.7964 -21.6393 7.36121e-05 -3.35997 
359 2 -1.15296 11.0762 -21.6393 7.43405e-05 -3.35997 
360 2 10.889 9.35589 -21.6394 7.44057e-05 -3.35998 
361 2 1.71174 2.47442 -21.6397 8.04475e-05 -3.35997 
362 2 13.7538 0.753988 -21.6397 8.12332e-05 -3.35997 
363 2 8.02433 17.9574 -21.6396 7.80798e-05 -3.35996 
364 2 3.72175 11.745 -22.3099 6.32957e-05 -3.36 
365 2 8.8807 4.86369 -22.3102 6.73872e-05 -3.36001 
366 2 6.58639 3.14328 -22.3102 6.71307e-05 -3.36 
367 2 4.2921 1.42287 -22.3102 6.81281e-05 -3.36 
368 2 6.01606 13.4653 -22.3099 6.3259e-05 -3.35999 
369 2 1.42741 10.0247 -22.31 6.49893e-05 -3.36001 
370 2 -0.866968 8.30441 -22.3101 6.68463e-05 -3.36001 
371 2 11.1751 6.58407 -22.3102 6.76825e-05 -3.36001 
372 2 -1.43729 18.6263 -22.3103 6.94642e-05 -3.36 
373 2 10.6048 16.9059 -22.3102 6.8631e-05 -3.36 
374 2 8.31039 15.1856 -22.3101 6.55934e-05 -3.36 
375 2 4.00772 8.97326 -22.9811 5.63471e-05 -3.36004 
376 2 9.16671 2.09179 -22.9813 5.93153e-05 -3.36004 
377 2 6.8724 0.371395 -22.9812 5.83747e-05 -3.36003 
378 2 1.14304 17.5749 -22.9812 5.84669e-05 -3.36003 
379 2 6.30205 10.6936 -22.981 5.54513e-05 -3.36003 
380 2 1.71338 7.25294 -22.9812 5.8274e-05 -3.36004 
381 2 -0.580986 5.53258 -22.9813 5.99939e-05 -3.36004 
382 2 11.4611 3.81219 -22.9813 6.0304e-05 -3.36004 
383 2 -1.1513 15.8545 -22.9812 5.86537e-05 -3.36003 
384 2 10.8907 14.1342 -22.9811 5.75721e-05 -3.36003 
385 2 8.59639 12.4139 -22.9811 5.60021e-05 -3.36003 
386 2 4.29369 6.20148 -23.6526 5.03047e-05 -3.36006 
387 2 6.01765 18.2438 -23.6527 5.08049e-05 -3.36006 
388 2 3.72334 16.5234 -23.6526 4.97878e-05 -3.36006 
389 2 1.42901 14.8031 -23.6526 4.96637e-05 -3.36006 
390 2 6.58801 7.92182 -23.6526 4.93868e-05 -3.36006 
391 2 1.99935 4.48111 -23.6527 5.17092e-05 -3.36006 
392 2 -0.295006 2.76073 -23.6528 5.26146e-05 -3.36007 
393 2 11.747 1.04034 -23.6527 5.21659e-05 -3.36007 
394 2 -0.865333 13.0828 -23.6525 4.97373e-05 -3.36006 
395 2 11.1767 11.3625 -23.6526 4.94866e-05 -3.36006 
396 2 8.88235 9.64215 -23.6525 4.92132e-05 -3.36006 
397 2 4.57965 3.42967 -24.3244 4.40078e-05 -3.36008 
398 2 6.30363 15.472 -24.3244 4.28073e-05 -3.36007 
399 2 4.0093 13.7517 -24.3243 4.22386e-05 -3.36007 
400 2 1.71496 12.0314 -24.3243 4.24255e-05 -3.36008 
401 2 6.87397 5.15004 -24.3244 4.35393e-05 -3.36008 
402 2 2.28531 1.70929 -24.3245 4.46805e-05 -3.36008 
403 2 14.3274 -0.0110824 -24.3245 4.48042e-05 -3.36008 
404 2 8.59797 17.1924 -24.3244 4.39653e-05 -3.36008 
405 2 -0.579388 10.3111 -24.3243 4.29512e-05 -3.36008 
406 2 11.4627 8.59075 -24.3244 4.3309e-05 -3.36008 
407 2 9.16831 6.8704 -24.3244 4.34158e-05 -3.36008 
408 2 4.8656 0.657889 -24.9965 3.75508e-05 -3.36009 
409 2 6.58958 12.7003 -24.9964 3.61711e-05 -3.36009 
410 2 4.29524 10.98 -24.9964 3.61457e-05 -3.36009 
411 2 2.0009 9.25969 -24.9965 3.6664e-05 -3.36009 
412 2 7.15992 2.37826 -24.9965 3.75234e-05 -3.36009 
413 2 -0.863794 17.8614 -24.9965 3.76693e-05 -3.36009 
414 2 11.1783 16.141 -24.9965 3.74096e-05 -3.36009 
415 2 8.88392 14.4207 -24.9965 3.67353e-05 -3.36009 
416 2 -0.293451 7.53935 -24.9965 3.73572e-05 -3.3601 
417 2 11.7486 5.819 -24.9965 3.77453e-05 -3.3601 
418 2 9.45426 4.09863 -24.9965 3.7702e-05 -3.3601 
419 2 1.71648 16.81 -25.6689 3.15159e-05 -3.3601 
420 2 6.87551 9.92865 -25.6688 3.09666e-05 -3.3601 
421 2 4.58117 8.20831 -25.6689 3.12046e-05 -3.3601 
422 2 2.28683 6.48796 -25.6689 3.17244e-05 -3.3601 
423 2 4.01081 18.5303 -25.6689 3.1688e-05 -3.3601 
424 2 -0.577859 15.0896 -25.6689 3.14538e-05 -3.3601 
425 2 11.4642 13.3693 -25.6689 3.12875e-05 -3.3601 
426 2 9.16985 11.649 -25.6688 3.10526e-05 -3.3601 
427 2 -0.00751589 4.76761 -25.6689 3.22211e-05 -3.3601 
428 2 12.0345 3.04724 -25.6689 3.23366e-05 -3.36011 
429 2 9.7402 1.32687 -25.6689 3.20528e-05 -3.3601 
430 2 2.00241 14.0383 -26.3415 2.63007e-05 -3.3601 
431 2 7.16144 7.15693 -26.3415 2.65402e-05 -3.36011 
432 2 4.8671 5.43658 -26.3416 2.67441e-05 -3.36011 
433 2 2.57276 3.71622 -26.3416 2.70522e-05 -3.36011 
434 2 4.29675 15.7586 -26.3415 2.64094e-05 -3.3601 
435 2 -0.291934 12.318 -26.3415 2.63592e-05 -3.36011 
436 2 11.7501 10.5976 -26.3415 2.64367e-05 -3.36011 
437 2 9.45578 8.87728 -26.3415 2.64716e-05 -3.36011 
438 2 0.278416 1.99586 -26.3416 2.72474e-05 -3.36011 
439 2 12.3205 0.275496 -26.3416 2.71171e-05 -3.36011 
440 2 6.59109 17.479 -26.3416 2.67439e-05 -3.36011 
441 2 2.28833 11.2666 -27.0144 2.19997e-05 -3.36011 
442 2 7.44736 4.38521 -27.0145 2.24562e-05 -3.36011 
443 2 5.15303 2.66485 -27.0145 2.25084e-05 -3.36011 
444 2 2.85869 0.944489 -27.0145 2.2595e-05 -3.36011 
445 2 4.58267 12.9869 -27.0144 2.19472e-05 -3.36011 
446 2 -0.00601516 9.54626 -27.0145 2.21937e-05 -3.36011 
447 2 12.0361 7.82592 -27.0145 2.23692e-05 -3.36011 
448 2 9.7417 6.10556 -27.0145 2.24409e-05 -3.36011 
449 2 -2.87071 18.148 -27.0145 2.25767e-05 -3.36011 
450 2 9.17136 16.4276 -27.0145 2.23705e-05 -3.36011 
451 2 6.87701 14.7073 -27.0144 2.20967e-05 -3.36011 
452 2 2.57425 8.4949 -27.6876 1.8459e-05 -3.36011 
453 2 7.73328 1.61349 -27.6876 1.86863e-05 -3.36011 
454 2 2.00389 18.817 -27.6876 1.863e-05 -3.36011 
455 2 -0.290449 17.0966 -27.6876 1.86019e-05 -3.36011 
456 2 4.86859 10.2152 -27.6876 1.83218e-05 -3.36011 
457 2 0.279902 6.77456 -27.6876 1.86551e-05 -3.36011 
458 2 12.322 5.0542 -27.6876 1.87759e-05 -3.36011 
459 2 10.0276 3.33385 -27.6876 1.87659e-05 -3.36011 
460 2 -2.5848 15.3763 -27.6876 1.85306e-05 -3.36011 
461 2 9.45727 13.6559 -27.6876 1.84102e-05 -3.36011 
462 2 7.16293 11.9356 -27.6876 1.83139e-05 -3.36011 
463 2 2.86016 5.7232 -28.361 1.54008e-05 -3.3601 
464 2 4.58415 17.7656 -28.361 1.53383e-05 -3.3601 
465 2 2.28981 16.0453 -28.361 1.52651e-05 -3.3601 
466 2 -0.00453657 14.3249 -28.361 1.52392e-05 -3.3601 
467 2 5.1545 7.44355 -28.361 1.52839e-05 -3.3601 
468 2 0.565818 4.00285 -28.361 1.55139e-05 -3.3601 
469 2 12.6079 2.28249 -28.361 1.55365e-05 -3.3601 
470 2 10.3135 0.562136 -28.361 1.54541e-05 -3.3601 
471 2 12.0375 12.6046 -28.3609 1.52272e-05 -3.3601 
472 2 9.74319 10.8842 -28.3609 1.52177e-05 -3.3601 
473 2 7.44884 9.16389 -28.361 1.52242e-05 -3.3601 
474 2 3.14607 2.9515 -29.0345 1.26717e-05 -3.3601 
475 2 4.87006 14.9939 -29.0345 1.24838e-05 -3.3601 
476 2 2.57572 13.2736 -29.0345 1.24539e-05 -3.3601 
477 2 0.281373 11.5532 -29.0345 1.24786e-05 -3.3601 
478 2 5.44041 4.67185 -29.0345 1.26204e-05 -3.3601 
479 2 0.85173 1.23114 -29.0345 1.2699e-05 -3.3601 
480 2 9.45875 18.4346 -29.0345 1.26579e-05 -3.3601 
481 2 7.1644 16.7143 -29.0345 1.25661e-05 -3.3601 
482 2 12.3234 9.8329 -29.0345 1.25256e-05 -3.3601 
483 2 10.0291 8.11255 -29.0345 1.2562e-05 -3.3601 
484 2 7.73476 6.3922 -29.0345 1.2585e-05 -3.3601 
485 2 3.43198 0.179798 -29.7082 1.02778e-05 -3.36009 
486 2 5.15597 12.2222 -29.7082 1.01403e-05 -3.36009 
487 2 2.86162 10.5019 -29.7082 1.01551e-05 -3.36009 
488 2 0.567282 8.78156 -29.7082 1.02078e-05 -3.36009 
489 2 5.72632 1.90015 -29.7082 1.0278e-05 -3.36009 
490 2 -2.29742 17.3833 -29.7082 1.02616e-05 -3.36009 
491 2 9.74465 15.6629 -29.7082 1.02181e-05 -3.36009 
492 2 7.45031 13.9426 -29.7082 1.01673e-05 -3.36009 
493 2 12.6094 7.06121 -29.7082 1.0263e-05 -3.36009 
494 2 10.315 5.34086 -29.7082 1.02863e-05 -3.36009 
495 2 8.02067 3.6205 -29.7082 1.02827e-05 -3.36009 
496 2 0.282833 16.3319 -30.3821 8.26241e-06 -3.36009 
497 2 5.44187 9.45056 -30.3821 8.22872e-06 -3.36009 
498 2 3.14753 7.73021 -30.3821 8.25961e-06 -3.36009 
499 2 0.853189 6.00987 -30.3821 8.30411e-06 -3.36009 
500 2 2.57718 18.0523 -30.3821 8.27635e-06 -3.36009 
501 2 -2.01151 14.6116 -30.3821 8.24634e-06 -3.36009 
502 2 10.0306 12.8913 -30.3821 8.23046e-06 -3.36009 
503 2 7.73622 11.1709 -30.3821 8.22192e-06 -3.36009 
504 2 12.8953 4.28951 -30.3821 8.33247e-06 -3.36009 
505 2 10.6009 2.56916 -30.3821 8.32782e-06 -3.36009 
506 2 8.30657 0.848808 -30.3821 8.30031e-06 -3.36009 
507 2 0.568737 13.5603 -31.0561 6.61022e-06 -3.36008 
508 2 5.72778 6.67887 -31.0561 6.64307e-06 -3.36008 
509 2 3.43344 4.95852 -31.0561 6.66415e-06 -3.36008 
510 2 1.13909 3.23818 -31.0561 6.68449e-06 -3.36008 
511 2 2.86308 15.2806 -31.0561 6.61625e-06 -3.36008 
512 2 -1.72561 11.8399 -31.0561 6.61228e-06 -3.36008 
513 2 10.3165 10.1196 -31.0561 6.62008e-06 -3.36008 
514 2 8.02212 8.39922 -31.0561 6.62944e-06 -3.36008 
515 2 13.1812 1.51782 -31.0561 6.68628e-06 -3.36008 
516 2 7.45177 18.7213 -31.0561 6.66421e-06 -3.36008 
517 2 5.15742 17.001 -31.0561 6.63513e-06 -3.36008 
518 2 0.85464 10.7886 -31.7302 5.27247e-06 -3.36007 
519 2 6.01368 3.90719 -31.7302 5.31033e-06 -3.36007 
520 2 3.71934 2.18684 -31.7302 5.31572e-06 -3.36007 
521 2 1.425 0.46649 -31.7302 5.31613e-06 -3.36007 
522 2 3.14898 12.5089 -31.7302 5.26575e-06 -3.36007 
523 2 -1.4397 9.06824 -31.7302 5.28648e-06 -3.36007 
524 2 10.6024 7.34789 -31.7302 5.29939e-06 -3.36007 
525 2 8.30803 5.62754 -31.7302 5.30595e-06 -3.36007 
526 2 10.032 17.67 -31.7302 5.30666e-06 -3.36007 
527 2 7.73767 15.9496 -31.7302 5.28817e-06 -3.36007 
528 2 5.44333 14.2293 -31.7302 5.27238e-06 -3.36007 
529 2 1.14054 8.01691 -32.4045 4.18979e-06 -3.36006 
530 2 6.29959 1.1355 -32.4045 4.20181e-06 -3.36006 
531 2 0.570188 18.339 -32.4045 4.19801e-06 -3.36006 
532 2 -1.72416 16.6186 -32.4045 4.19294e-06 -3.36006 
533 2 3.43489 9.73725 -32.4045 4.17817e-06 -3.36006 
534 2 13.1826 6.29656 -32.4045 4.20332e-06 -3.36006 
535 2 10.8883 4.5762 -32.4045 4.20863e-06 -3.36006 
536 2 8.59393 2.85585 -32.4045 4.20624e-06 -3.36006 
537 2 10.3179 14.8983 -32.4045 4.18553e-06 -3.36006 
538 2 8.02357 13.1779 -32.4045 4.17762e-06 -3.36006 
539 2 5.72923 11.4576 -32.4045 4.17482e-06 -3.36006 
540 2 1.42645 5.24522 -33.0788 3.30729e-06 -3.36006 
541 2 3.15043 17.2877 -33.0788 3.29661e-06 -3.36006 
542 2 0.856087 15.5673 -33.0788 3.29267e-06 -3.36006 
543 2 -1.43826 13.847 -33.0788 3.28932e-06 -3.36006 
544 2 3.72079 6.96557 -33.0788 3.29865e-06 -3.36006 
545 2 13.4685 3.52487 -33.0788 3.31269e-06 -3.36006 
546 2 11.1742 1.80452 -33.0788 3.31141e-06 -3.36006 
547 2 8.87983 0.0841687 -33.0788 3.30363e-06 -3.36006 
548 2 10.6038 12.1266 -33.0788 3.28745e-06 -3.36006 
549 2 8.30947 10.4063 -33.0788 3.28917e-06 -3.36006 
550 2 6.01513 8.68592 -33.0788 3.29226e-06 -3.36006 
551 2 1.71235 2.47354 -33.7533 2.58244e-06 -3.36005 
552 2 3.43633 14.516 -33.7533 2.56735e-06 -3.36005 
553 2 1.14199 12.7956 -33.7533 2.56609e-06 -3.36005 
554 2 -1.15236 11.0753 -33.7533 2.56643e-06 -3.36005 
555 2 4.00669 4.19389 -33.7533 2.57945e-06 -3.36005 
556 2 13.7544 0.753193 -33.7533 2.58219e-06 -3.36005 
557 2 8.02502 17.9567 -33.7533 2.57808e-06 -3.36005 
558 2 5.73068 16.2363 -33.7533 2.57151e-06 -3.36005 
559 2 10.8897 9.35494 -33.7533 2.56865e-06 -3.36005 
560 2 8.59537 7.63459 -33.7533 2.57246e-06 -3.36005 
561 2 6.30103 5.91424 -33.7533 2.57592e-06 -3.36005 
562 2 -1.43681 18.6257 -34.4278 1.99902e-06 -3.36004 
563 2 3.72223 11.7443 -34.4278 1.99046e-06 -3.36004 
564 2 1.42789 10.024 -34.4278 1.99126e-06 -3.36004 
565 2 -0.866456 8.30361 -34.4278 1.99414e-06 -3.36004 
566 2 4.29259 1.42221 -34.4278 1.9997e-06 -3.36004 
567 2 10.6053 16.9054 -34.4278 1.99783e-06 -3.36004 
568 2 8.31092 15.185 -34.4278 1.99369e-06 -3.36004 
569 2 6.01657 13.4646 -34.4278 1.99139e-06 -3.36004 
570 2 11.1756 6.58326 -34.4278 1.99755e-06 -3.36004 
571 2 8.88127 4.86291 -34.4278 1.99894e-06 -3.36004 
572 2 6.58693 3.14256 -34.4278 1.99944e-06 -3.36004 