ITEM: TIMESTEP
0
ITEM: NUMBER OF ATOMS
3299
ITEM: BOX BOUNDS xy xz yz pp pp ff
-3.4497437394522708e+00 1.4326257900731020e+01 -3.4423981577489093e+00
-9.5890098570392997e-03 1.8910553270973384e+01 0.0000000000000000e+00
-1.2150000000000000e+02 1.2150000000000000e+02 0.0000000000000000e+00
ITEM: ATOMS id type x y z c_csym c_eng 
1 2 11.7238 8.2208 0.384693 7.44108 -3.27187 
2 2 2.17878 1.90267 -0.121858 2.88613 -3.30657 
3 2 -0.0158689 0.160163 0.186079 6.14398 -3.37512 
4 2 8.75785 17.2966 0.735189 8.65781 -3.18298 
5 2 -0.434771 10.02 0.307257 2.16458 -3.30316 
6 2 8.98899 7.27973 -0.040032 10.0586 -3.35621 
7 2 6.73602 5.38749 0.0849141 6.169 -3.36449 
8 2 4.48632 3.66111 -0.108461 2.82019 -3.31738 
9 2 6.25643 15.3032 0.618111 7.36897 -3.22171 
10 2 3.93914 13.8096 0.111141 6.02252 -3.35989 
11 2 1.62447 12.0864 0.0964226 6.14371 -3.35081 
12 2 11.523 6.06176 -1.22548 4.00455 -3.30155 
13 2 -1.11036 18.2406 -1.20618 2.88912 -3.30205 
14 2 10.7627 16.5363 -1.11894 6.24205 -3.32051 
15 2 8.87227 14.4446 -0.912315 6.64343 -3.23078 
16 2 -0.484808 7.75756 -1.27593 5.52173 -3.2765 
17 2 9.18645 4.55018 -1.09166 2.00249 -3.32968 
18 2 6.94938 2.78321 -1.15926 1.78613 -3.32583 
19 2 4.63435 1.06163 -1.19115 1.08855 -3.282 
20 2 6.35159 13.083 -1.16634 4.91128 -3.28139 
21 2 3.99393 11.3015 -1.21637 3.09781 -3.28196 
22 2 1.7542 9.5402 -1.24087 3.88704 -3.27908 
23 2 11.9033 3.27725 -1.85969 0.262231 -3.30614 
24 2 -0.657422 15.4265 -1.70062 0.974024 -3.33338 
25 2 11.3953 13.689 -1.71014 2.13725 -3.29034 
26 2 8.99706 11.8597 -1.76109 3.82086 -3.28698 
27 2 -0.117994 4.95379 -1.81981 0.110445 -3.33163 
28 2 9.61403 1.70432 -1.84084 0.631343 -3.31969 
29 2 3.82118 18.9028 -1.80828 0.712166 -3.3104 
30 2 1.62387 17.1705 -1.81445 0.378617 -3.314 
31 2 6.6886 10.2095 -1.72342 6.59844 -3.32784 
32 2 4.3746 8.44211 -1.84411 0.117617 -3.30359 
33 2 2.12466 6.65502 -1.81762 0.122711 -3.33742 
34 2 12.162 0.28623 -2.28543 4.90932 -3.35754 
35 2 -0.415692 12.4886 -1.97115 6.56488 -3.36869 
36 2 11.6353 10.7725 -2.10079 5.85382 -3.36011 
37 2 9.32339 9.10379 -2.24315 2.91185 -3.34045 
38 2 0.147093 2.1213 -2.35941 0.67681 -3.34203 
39 2 6.19142 18.0046 -2.77863 9.69178 -3.08435 
40 2 4.25141 15.957 -2.27773 4.4261 -3.341 
41 2 1.89203 14.2188 -2.21663 1.23034 -3.32796 
42 2 7.05548 7.36764 -2.29248 0.648921 -3.33891 
43 2 4.78464 5.62436 -2.34253 0.544043 -3.35019 
44 2 2.4773 3.87278 -2.31683 0.344242 -3.34721 
45 2 9.07685 16.5893 -3.31207 3.53882 -3.24102 
46 2 -0.231238 9.8248 -3.10378 1.64895 -3.32452 
47 2 11.8452 8.10227 -3.10544 1.68007 -3.33734 
48 2 9.56566 6.41382 -3.10685 0.312435 -3.30622 
49 2 -3.07355 18.3847 -3.11886 0.839432 -3.31853 
50 2 6.73924 14.9045 -3.23 3.52953 -3.2948 
51 2 4.39759 13.2804 -3.08896 0.671347 -3.31846 
52 2 2.05115 11.5547 -3.10549 0.90756 -3.29868 
53 2 7.29496 4.67478 -3.11864 0.406322 -3.32299 
54 2 5.00209 2.95016 -3.13137 0.258181 -3.32494 
55 2 2.67614 1.21591 -3.13814 0.309117 -3.31366 
56 2 9.37449 13.81 -3.73306 0.180349 -3.34056 
57 2 0.141851 6.97582 -3.82177 0.0585977 -3.33443 
58 2 12.1966 5.2869 -3.81115 0.0411277 -3.34728 
59 2 9.88926 3.62993 -3.79162 0.0882923 -3.35159 
60 2 -2.68608 15.5725 -3.72189 0.18136 -3.34204 
61 2 7.02426 12.1469 -3.75421 0.0417868 -3.33511 
62 2 4.71555 10.4499 -3.76799 0.0437522 -3.35881 
63 2 2.40606 8.70781 -3.80156 0.0350865 -3.34433 
64 2 7.61644 1.84742 -3.81252 0.149906 -3.35417 
65 2 5.26337 0.158195 -3.80575 0.0883602 -3.34734 
66 2 -0.436459 17.3165 -3.7665 0.0635261 -3.35251 
67 2 9.64934 11.0605 -4.35812 0.142143 -3.3509 
68 2 0.461241 4.16637 -4.40926 0.0727713 -3.35511 
69 2 12.5021 2.464 -4.42033 0.151764 -3.35471 
70 2 10.2304 0.886377 -4.55627 0.750841 -3.30098 
71 2 11.9562 12.7475 -4.29725 0.290044 -3.35635 
72 2 7.32733 9.36133 -4.3503 0.0890707 -3.35553 
73 2 5.0351 7.64033 -4.40484 0.0707524 -3.36178 
74 2 2.75274 5.89694 -4.40562 0.070904 -3.36083 
75 2 4.30942 17.9659 -4.55005 0.761241 -3.29279 
76 2 2.15314 16.2087 -4.35816 0.208306 -3.36182 
77 2 -0.112357 14.4659 -4.27995 0.330669 -3.34154 
78 2 9.87704 8.34453 -5.08553 0.0548006 -3.3362 
79 2 0.71008 1.42358 -5.12424 0.0500512 -3.3396 
80 2 9.29915 18.6392 -5.14173 0.180136 -3.34346 
81 2 7.00447 16.9372 -5.20899 0.215788 -3.33969 
82 2 12.173 10.0513 -5.09001 0.159228 -3.33069 
83 2 7.59331 6.62481 -5.09586 0.0372575 -3.33373 
84 2 5.30681 4.89154 -5.11319 0.0311649 -3.33783 
85 2 3.01076 3.15822 -5.11091 0.0408066 -3.3423 
86 2 4.72247 15.219 -5.10797 0.12078 -3.33845 
87 2 2.42829 13.4896 -5.0711 0.087921 -3.33278 
88 2 0.126764 11.7724 -5.06603 0.244837 -3.32424 
89 2 10.1811 5.56678 -5.77173 0.00807746 -3.36044 
90 2 -2.44223 17.5495 -5.74932 0.0257411 -3.36273 
91 2 9.63683 15.8056 -5.81782 0.0878509 -3.33107 
92 2 7.34555 14.1202 -5.77866 0.0290667 -3.34301 
93 2 12.4701 7.26983 -5.76965 0.00863337 -3.35889 
94 2 7.8871 3.84075 -5.77827 0.00628937 -3.35921 
95 2 5.59127 2.11047 -5.78594 0.0062999 -3.35942 
96 2 3.28349 0.36814 -5.77812 0.0138177 -3.36388 
97 2 5.0248 12.4281 -5.73792 0.0134042 -3.36057 
98 2 2.72536 10.7058 -5.74892 0.0116897 -3.36108 
99 2 0.428418 8.98297 -5.76349 0.0100812 -3.35438 
100 2 10.4843 2.79913 -6.47436 0.0405641 -3.34093 
101 2 -2.10804 14.7548 -6.37213 0.0450666 -3.36714 
102 2 9.94055 13.0399 -6.38983 0.0364427 -3.36644 
103 2 7.62546 11.3405 -6.38977 0.0169336 -3.36634 
104 2 12.7834 4.47272 -6.43267 0.0120906 -3.36521 
105 2 8.17201 1.05365 -6.48294 0.0325317 -3.37018 
106 2 2.40131 18.228 -6.46172 0.0558658 -3.33885 
107 2 0.150975 16.4772 -6.38172 0.0391183 -3.37004 
108 2 5.3234 9.63588 -6.40146 0.00946926 -3.35894 
109 2 3.02715 7.90829 -6.42119 0.00849142 -3.35837 
110 2 0.738769 6.18245 -6.43036 0.0105316 -3.35612 
111 2 7.32285 18.9052 -7.16386 0.0272522 -3.35157 
112 2 -1.84096 12.0124 -7.07775 0.0239139 -3.34207 
113 2 10.1937 10.2948 -7.08445 0.0106802 -3.34476 
114 2 7.89609 8.58469 -7.07991 0.00657651 -3.3511 
115 2 13.0593 1.6961 -7.11571 0.00861752 -3.34481 
116 2 5.01681 17.1772 -7.15251 0.0276237 -3.35204 
117 2 2.73236 15.4538 -7.08007 0.0153218 -3.34737 
118 2 0.449421 13.7329 -7.06424 0.0218423 -3.34564 
119 2 5.60624 6.8628 -7.09449 0.002277 -3.35052 
120 2 3.31452 5.13443 -7.10084 0.00359616 -3.3518 
121 2 1.02191 3.40959 -7.1049 0.00479522 -3.35256 
122 2 7.62396 16.1011 -7.79834 0.0108183 -3.35624 
123 2 -1.55445 9.23909 -7.75616 0.000867132 -3.36152 
124 2 10.4835 7.52519 -7.76214 0.00102274 -3.36102 
125 2 8.19069 5.8072 -7.76985 0.000601466 -3.3605 
126 2 9.91739 17.8238 -7.78298 0.00510722 -3.36493 
127 2 5.32659 14.3877 -7.76017 0.00522661 -3.36497 
128 2 3.03356 12.6751 -7.74257 0.00146175 -3.36032 
129 2 0.738618 10.9594 -7.74112 0.00223237 -3.36247 
130 2 5.89728 4.0807 -7.77778 0.000747822 -3.35857 
131 2 3.60098 2.3507 -7.77597 0.00124298 -3.36121 
132 2 1.309 0.620112 -7.77198 0.00323997 -3.36057 
133 2 7.92365 13.3185 -8.41441 0.00655379 -3.35875 
134 2 13.0744 6.45803 -8.43016 0.000917735 -3.36253 
135 2 10.7818 4.7492 -8.44268 0.00266324 -3.3554 
136 2 8.48105 3.02803 -8.45372 0.00188 -3.35905 
137 2 10.2227 15.0307 -8.42562 0.0111834 -3.35236 
138 2 5.62262 11.6113 -8.4054 0.00290969 -3.36053 
139 2 3.32649 9.89573 -8.41293 0.000897699 -3.36138 
140 2 1.03288 8.17584 -8.42353 0.000770576 -3.36142 
141 2 6.18075 1.29605 -8.45133 0.00244395 -3.36075 
142 2 0.443869 18.4789 -8.43096 0.00622127 -3.35695 
143 2 -1.83201 16.7534 -8.40875 0.00699194 -3.3618 
144 2 8.20327 10.5532 -9.08125 0.00104912 -3.35583 
145 2 13.3657 3.67679 -9.10461 0.000570775 -3.35571 
146 2 11.0718 1.96268 -9.12447 0.0031995 -3.35676 
147 2 8.76988 0.239757 -9.13078 0.00274916 -3.35796 
148 2 10.5024 12.2662 -9.08347 0.00231063 -3.35696 
149 2 5.90849 8.83838 -9.08475 0.000422836 -3.35602 
150 2 3.61592 7.11693 -9.09333 0.000164086 -3.35618 
151 2 1.32399 5.39464 -9.09895 0.000218593 -3.3553 
152 2 3.03149 17.4284 -9.11128 0.00400673 -3.35654 
153 2 0.747659 15.7056 -9.07889 0.00276564 -3.35473 
154 2 -1.53645 13.9853 -9.07718 0.00270307 -3.35464 
155 2 8.49298 7.78098 -9.76044 0.000328829 -3.35971 
156 2 13.6576 0.891267 -9.77468 0.000556603 -3.3584 
157 2 7.92384 18.0894 -9.78831 0.00249618 -3.35751 
158 2 5.6265 16.3666 -9.78013 0.00261036 -3.35698 
159 2 10.7893 9.49623 -9.75826 0.000297587 -3.35982 
160 2 6.19943 6.0603 -9.76687 0.000184454 -3.35866 
161 2 3.90601 4.3357 -9.77005 0.000217582 -3.35911 
162 2 1.61396 2.61125 -9.77019 0.000342856 -3.36001 
163 2 3.33318 14.649 -9.7538 0.00119489 -3.3599 
164 2 1.04379 12.9314 -9.74625 0.000574419 -3.3606 
165 2 -1.2479 11.213 -9.75278 0.000382573 -3.36092 
166 2 8.78566 5.00272 -10.4398 0.000322684 -3.35855 
167 2 10.5125 17.0243 -10.4311 0.00125701 -3.35955 
168 2 8.2197 15.303 -10.4331 0.00202424 -3.35938 
169 2 5.92307 13.5876 -10.4206 0.00117479 -3.35972 
170 2 11.0807 6.72089 -10.4327 0.000267936 -3.35821 
171 2 6.4899 3.27853 -10.4432 0.00038425 -3.35778 
172 2 4.19569 1.551 -10.438 0.000575634 -3.3597 
173 2 -1.53543 18.7454 -10.4298 0.00101365 -3.35769 
174 2 3.62878 11.8734 -10.4152 0.000464275 -3.35911 
175 2 1.33513 10.1564 -10.4183 0.000279698 -3.36015 
176 2 -0.958553 8.43743 -10.4263 0.000118267 -3.35974 
177 2 9.07716 2.2205 -11.1145 0.000607684 -3.35905 
178 2 10.8043 14.2476 -11.0898 0.000515892 -3.35687 
179 2 8.50788 12.5305 -11.0876 0.000396459 -3.358 
180 2 6.2119 10.8155 -11.0853 0.000301271 -3.35832 
181 2 11.3731 3.94118 -11.1078 0.000395956 -3.35822 
182 2 6.78074 0.494761 -11.1109 0.000630471 -3.3591 
183 2 1.04708 17.6892 -11.0973 0.000614689 -3.35786 
184 2 -1.23951 15.9678 -11.0868 0.000604649 -3.35807 
185 2 3.91807 9.09816 -11.0889 0.000111052 -3.35841 
186 2 1.62517 7.37832 -11.0947 6.33429e-05 -3.35846 
187 2 -0.66745 5.65878 -11.0997 7.74574e-05 -3.35851 
188 2 5.92808 18.3546 -11.7783 0.000682652 -3.35964 
189 2 11.0923 11.4754 -11.7575 0.000117315 -3.35988 
190 2 8.7962 9.75866 -11.7585 0.000139821 -3.35923 
191 2 6.50166 8.04082 -11.7611 0.000131712 -3.35877 
192 2 11.6657 1.15678 -11.7774 0.000483324 -3.35853 
193 2 3.63397 16.6317 -11.7679 0.000528358 -3.35853 
194 2 1.34327 14.9122 -11.755 0.000360503 -3.35933 
195 2 -0.947098 13.1937 -11.7542 0.000162099 -3.35967 
196 2 4.20831 6.32006 -11.7652 9.7157e-05 -3.35866 
197 2 1.91582 4.59811 -11.7676 9.75082e-05 -3.35876 
198 2 -0.375782 2.87733 -11.7704 0.0001426 -3.35861 
199 2 6.22258 15.5724 -12.4327 0.000490398 -3.35871 
200 2 11.3818 8.70097 -12.4295 9.12439e-05 -3.35891 
201 2 9.08703 6.98302 -12.433 0.000132743 -3.35894 
202 2 6.79275 5.26244 -12.4366 0.000139731 -3.35877 
203 2 8.51721 17.2929 -12.437 0.000499027 -3.3589 
204 2 3.92862 13.8547 -12.4237 0.000303286 -3.35934 
205 2 1.63612 12.1373 -12.4215 0.000157557 -3.35919 
206 2 -0.657033 10.419 -12.4254 8.74396e-05 -3.35916 
207 2 4.4992 3.53931 -12.4371 0.000151971 -3.359 
208 2 2.20753 1.81594 -12.4348 0.000179179 -3.35911 
209 2 14.2512 0.0942727 -12.4345 0.000230359 -3.35884 
210 2 6.51356 12.7975 -13.0919 0.000178628 -3.35884 
211 2 11.6729 5.92387 -13.102 0.000105069 -3.35877 
212 2 9.37879 4.20408 -13.1063 0.000174029 -3.35879 
213 2 7.08432 2.48172 -13.1074 0.00020358 -3.35893 
214 2 8.80869 14.5152 -13.0954 0.000227044 -3.35876 
215 2 4.21949 11.0804 -13.0907 0.000123575 -3.35885 
216 2 1.92612 9.36209 -13.0934 8.40247e-05 -3.35925 
217 2 -0.367205 7.64276 -13.0977 6.41703e-05 -3.3591 
218 2 4.7912 0.758053 -13.103 0.00018518 -3.35888 
219 2 -0.941633 17.9557 -13.097 0.000176852 -3.35845 
220 2 11.102 16.235 -13.0956 0.000183538 -3.35877 
221 2 6.80308 10.0239 -13.7613 9.26148e-05 -3.3591 
222 2 11.9647 3.14404 -13.7723 0.000134091 -3.35889 
223 2 9.67101 1.42278 -13.7747 0.00021423 -3.35925 
224 2 3.93462 18.6206 -13.7718 0.000208062 -3.3593 
225 2 9.09783 11.7417 -13.761 8.33224e-05 -3.3593 
226 2 4.50935 8.30499 -13.7634 7.65973e-05 -3.35899 
227 2 2.21627 6.58475 -13.7663 6.96783e-05 -3.35899 
228 2 -0.0763279 4.86427 -13.7688 7.49136e-05 -3.35895 
229 2 1.64231 16.899 -13.7647 0.000149376 -3.35899 
230 2 -0.648584 15.1792 -13.7601 0.000120856 -3.35921 
231 2 11.3926 13.46 -13.7607 8.39496e-05 -3.35913 
232 2 7.09339 7.24805 -14.4341 8.38533e-05 -3.35907 
233 2 12.2572 0.363234 -14.4379 0.0001503 -3.35906 
234 2 6.52132 17.5622 -14.4372 0.00019453 -3.35927 
235 2 4.22767 15.8419 -14.4325 0.000150972 -3.35906 
236 2 9.38751 8.96728 -14.4319 7.35184e-05 -3.35918 
237 2 4.79992 5.52726 -14.4359 8.4144e-05 -3.35906 
238 2 2.50729 3.80563 -14.4363 8.41901e-05 -3.35911 
239 2 0.215532 2.08432 -14.4365 9.24819e-05 -3.35905 
240 2 1.935 14.123 -14.4278 0.000115503 -3.35926 
241 2 -0.357597 12.4044 -14.4279 7.12424e-05 -3.35931 
242 2 11.6821 10.6857 -14.4301 6.01705e-05 -3.35933 
243 2 7.38446 4.47006 -15.1054 9.89832e-05 -3.35911 
244 2 9.10667 16.5049 -15.1008 0.000118937 -3.35908 
245 2 6.81282 14.7852 -15.099 0.000114198 -3.35906 
246 2 4.51894 13.0667 -15.0963 9.3985e-05 -3.35916 
247 2 9.6782 6.19072 -15.1037 8.4717e-05 -3.35909 
248 2 5.09122 2.74822 -15.1049 9.73333e-05 -3.35915 
249 2 2.79913 1.02635 -15.1026 8.87381e-05 -3.35907 
250 2 -2.9346 18.2254 -15.1011 8.86689e-05 -3.35903 
251 2 2.22563 11.3483 -15.0961 7.06042e-05 -3.35918 
252 2 -0.0677634 9.62933 -15.0984 5.59643e-05 -3.35919 
253 2 11.972 7.91017 -15.1011 6.27297e-05 -3.35911 
254 2 7.67608 1.69108 -15.7733 0.000107509 -3.35927 
255 2 9.39695 13.7296 -15.7659 6.59976e-05 -3.35923 
256 2 7.10271 12.0109 -15.7652 6.48775e-05 -3.35923 
257 2 4.80886 10.2922 -15.7655 6.27175e-05 -3.35919 
258 2 9.96955 3.41241 -15.7734 9.7459e-05 -3.35919 
259 2 1.94078 18.8897 -15.7705 9.21305e-05 -3.35923 
260 2 -0.351165 17.169 -15.7672 7.36354e-05 -3.35912 
261 2 -2.64319 15.449 -15.766 6.68914e-05 -3.35919 
262 2 2.51546 8.57286 -15.7672 5.79327e-05 -3.35925 
263 2 0.222286 6.85294 -15.7694 5.80977e-05 -3.3592 
264 2 12.2628 5.13291 -15.7715 7.17318e-05 -3.35912 
265 2 4.5255 17.8331 -16.4381 9.40188e-05 -3.35932 
266 2 9.68646 10.9553 -16.4345 5.26025e-05 -3.35935 
267 2 7.39242 9.23625 -16.4354 5.88649e-05 -3.35928 
268 2 5.09883 7.51653 -16.4368 6.10582e-05 -3.35924 
269 2 10.2612 0.633773 -16.4399 9.76203e-05 -3.35932 
270 2 2.23259 16.1129 -16.435 7.4204e-05 -3.35925 
271 2 -0.0599563 14.3935 -16.4332 6.16481e-05 -3.35933 
272 2 11.9805 12.6743 -16.4336 5.16972e-05 -3.35935 
273 2 2.80572 5.79606 -16.4379 6.17632e-05 -3.35924 
274 2 0.513074 4.07533 -16.4387 6.36698e-05 -3.35922 
275 2 12.5542 2.35465 -16.4396 7.71853e-05 -3.35921 
276 2 4.81654 15.0571 -17.1029 6.83755e-05 -3.35927 
277 2 9.97626 8.18019 -17.1049 5.65278e-05 -3.3593 
278 2 7.68264 6.46028 -17.1062 6.43625e-05 -3.35928 
279 2 5.38934 4.73961 -17.1069 6.69853e-05 -3.35929 
280 2 7.11001 16.7768 -17.1048 7.81917e-05 -3.35931 
281 2 2.52329 13.3379 -17.1015 5.90452e-05 -3.35932 
282 2 0.230068 11.6189 -17.1019 4.9973e-05 -3.35934 
283 2 12.2701 9.89961 -17.1034 4.91368e-05 -3.35934 
284 2 3.09658 3.01854 -17.1065 6.4365e-05 -3.35928 
285 2 0.804329 1.29764 -17.1059 6.29341e-05 -3.35925 
286 2 9.40314 18.4972 -17.1056 7.18809e-05 -3.35926 
287 2 5.10651 12.2826 -17.7704 5.14131e-05 -3.35934 
288 2 10.2666 5.4039 -17.7749 6.20547e-05 -3.35932 
289 2 7.97334 3.68332 -17.7756 6.91057e-05 -3.35935 
290 2 5.6803 1.96235 -17.7749 6.70424e-05 -3.35936 
291 2 7.40017 14.0018 -17.771 5.38995e-05 -3.35933 
292 2 2.81306 10.5634 -17.7708 4.86412e-05 -3.35935 
293 2 0.519702 8.84381 -17.7722 4.7965e-05 -3.35935 
294 2 12.5599 7.12399 -17.7736 5.2762e-05 -3.35932 
295 2 3.38773 0.241535 -17.7733 5.91301e-05 -3.35932 
296 2 -2.34701 17.4413 -17.7721 5.45291e-05 -3.3593 
297 2 9.69373 15.7213 -17.7716 5.57887e-05 -3.35933 
298 2 5.39608 9.50802 -18.4402 4.7823e-05 -3.35939 
299 2 10.5573 2.62707 -18.4433 6.31874e-05 -3.35939 
300 2 8.26424 0.906404 -18.4429 6.5847e-05 -3.35942 
301 2 2.52886 18.106 -18.4414 5.90559e-05 -3.3594 
302 2 7.68969 11.2275 -18.4396 4.60087e-05 -3.35941 
303 2 3.10274 7.78815 -18.4412 4.89363e-05 -3.35939 
304 2 0.809637 6.06793 -18.4421 5.07035e-05 -3.35937 
305 2 12.8503 4.34758 -18.4429 5.54107e-05 -3.35935 
306 2 0.236136 16.386 -18.4398 5.08767e-05 -3.35937 
307 2 -2.05673 14.6663 -18.4392 4.64624e-05 -3.3594 
308 2 9.98344 12.9468 -18.4394 4.49608e-05 -3.35942 
309 2 5.68585 6.73268 -19.1104 5.03381e-05 -3.35942 
310 2 7.40557 18.7709 -19.1104 5.71019e-05 -3.35942 
311 2 5.11241 17.0507 -19.1094 5.49918e-05 -3.35943 
312 2 2.81926 15.3309 -19.1082 4.87893e-05 -3.35941 
313 2 7.97923 8.45275 -19.1097 4.76286e-05 -3.35943 
314 2 3.39276 5.01224 -19.1108 5.09753e-05 -3.35942 
315 2 1.09997 3.29168 -19.1108 5.07861e-05 -3.3594 
316 2 13.1409 1.57118 -19.1107 5.33118e-05 -3.3594 
317 2 0.526154 13.6114 -19.1077 4.41922e-05 -3.35944 
318 2 -1.76718 11.892 -19.1081 4.20943e-05 -3.35945 
319 2 10.2728 10.1724 -19.1089 4.38417e-05 -3.35945 
320 2 5.97594 3.95686 -19.7796 5.12847e-05 -3.35946 
321 2 7.69564 15.9958 -19.7775 4.64507e-05 -3.35945 
322 2 5.40227 14.2761 -19.7769 4.39001e-05 -3.35945 
323 2 3.10891 12.5566 -19.7766 4.16622e-05 -3.35946 
324 2 8.26908 5.67733 -19.7795 5.00619e-05 -3.35946 
325 2 3.68305 2.23629 -19.7791 4.90778e-05 -3.35945 
326 2 1.39037 0.515857 -19.7784 4.65581e-05 -3.35943 
327 2 9.98879 17.7158 -19.7779 4.66093e-05 -3.35944 
328 2 0.815583 10.8371 -19.7771 4.05961e-05 -3.35946 
329 2 -1.47781 9.11738 -19.7779 4.21323e-05 -3.35946 
330 2 10.5624 7.3975 -19.7788 4.60605e-05 -3.35945 
331 2 6.26613 1.18125 -20.4477 4.77558e-05 -3.3595 
332 2 7.98508 13.2216 -20.4458 3.91282e-05 -3.3595 
333 2 5.6916 11.502 -20.4459 3.91574e-05 -3.35949 
334 2 3.39821 9.78234 -20.4463 3.96456e-05 -3.35949 
335 2 8.55916 2.90169 -20.4482 4.91428e-05 -3.3595 
336 2 0.530857 18.3811 -20.4468 4.37908e-05 -3.35948 
337 2 -1.762 16.6611 -20.4461 4.08141e-05 -3.35948 
338 2 10.2785 14.9413 -20.4458 3.97029e-05 -3.35949 
339 2 1.10494 8.06243 -20.447 4.08398e-05 -3.35949 
340 2 13.1454 6.34233 -20.4477 4.32837e-05 -3.35948 
341 2 10.8522 4.62209 -20.4481 4.67596e-05 -3.35948 
342 2 3.11367 17.3265 -21.1154 4.13678e-05 -3.35952 
343 2 8.27423 10.4476 -21.1153 3.75052e-05 -3.35953 
344 2 5.98082 8.72774 -21.1158 3.90739e-05 -3.35953 
345 2 3.68758 7.00767 -21.1162 4.02306e-05 -3.35952 
346 2 8.84914 0.126502 -21.1162 4.41259e-05 -3.35953 
347 2 0.820613 15.6067 -21.1148 3.81602e-05 -3.35952 
348 2 -1.47254 13.887 -21.1147 3.64198e-05 -3.35953 
349 2 10.5677 12.1673 -21.1149 3.6324e-05 -3.35954 
350 2 1.3945 5.28741 -21.1165 4.10056e-05 -3.35952 
351 2 13.4351 3.5671 -21.1166 4.22276e-05 -3.35951 
352 2 11.1422 1.84678 -21.1166 4.40236e-05 -3.35952 
353 2 3.4031 14.5525 -21.7839 3.55063e-05 -3.35955 
354 2 8.56343 7.67326 -21.7852 3.79888e-05 -3.35956 
355 2 6.2702 5.9531 -21.7855 3.94269e-05 -3.35956 
356 2 3.97712 4.23279 -21.7855 3.94857e-05 -3.35955 
357 2 5.69633 16.2723 -21.7843 3.74456e-05 -3.35955 
358 2 1.10986 12.8328 -21.7838 3.42895e-05 -3.35955 
359 2 -1.18346 11.113 -21.7842 3.44145e-05 -3.35956 
360 2 10.8568 9.39322 -21.7847 3.59133e-05 -3.35956 
361 2 1.68419 2.51247 -21.7853 3.87174e-05 -3.35954 
362 2 13.7249 0.792219 -21.785 3.85044e-05 -3.35954 
363 2 7.98949 17.9922 -21.7847 3.8599e-05 -3.35955 
364 2 3.69213 11.7787 -22.4532 3.23989e-05 -3.35958 
365 2 8.85278 4.89871 -22.4547 3.7416e-05 -3.35958 
366 2 6.55969 3.17843 -22.4546 3.76783e-05 -3.35958 
367 2 4.2667 1.45816 -22.4542 3.63508e-05 -3.35958 
368 2 5.98545 13.4985 -22.4532 3.26709e-05 -3.35958 
369 2 1.39883 10.0589 -22.4536 3.28008e-05 -3.35958 
370 2 -0.894437 8.33896 -22.4541 3.4026e-05 -3.35958 
371 2 11.1459 6.6189 -22.4545 3.58261e-05 -3.35958 
372 2 -1.46864 18.6582 -22.4538 3.47026e-05 -3.35957 
373 2 10.5719 16.9381 -22.4535 3.38358e-05 -3.35957 
374 2 8.27876 15.2183 -22.4533 3.33001e-05 -3.35958 
375 2 3.98102 9.00491 -23.1232 3.14934e-05 -3.35961 
376 2 9.14216 2.12429 -23.1237 3.47097e-05 -3.35961 
377 2 6.8491 0.404119 -23.1233 3.38558e-05 -3.35961 
378 2 1.11365 17.6042 -23.1229 3.21146e-05 -3.3596 
379 2 6.27431 10.7248 -23.1229 3.08106e-05 -3.35961 
380 2 1.68781 7.28486 -23.1235 3.22729e-05 -3.35961 
381 2 -0.605312 5.56471 -23.1237 3.31906e-05 -3.3596 
382 2 11.4352 3.84451 -23.1238 3.42179e-05 -3.3596 
383 2 -1.17943 15.8843 -23.1226 3.07547e-05 -3.3596 
384 2 10.861 14.1645 -23.1225 3.02478e-05 -3.35961 
385 2 8.56766 12.4447 -23.1226 3.03347e-05 -3.35961 
386 2 4.26997 6.23095 -23.793 3.07272e-05 -3.35963 
387 2 5.98895 18.2705 -23.7925 3.06239e-05 -3.35963 
388 2 3.69581 16.5505 -23.7922 2.9527e-05 -3.35963 
389 2 1.40264 14.8306 -23.792 2.84303e-05 -3.35963 
390 2 6.56315 7.95107 -23.7928 3.0174e-05 -3.35963 
391 2 1.97688 4.51076 -23.793 3.08449e-05 -3.35963 
392 2 -0.316143 2.79057 -23.7929 3.08859e-05 -3.35962 
393 2 11.7244 1.07041 -23.7928 3.09965e-05 -3.35963 
394 2 -0.890578 13.1108 -23.792 2.80245e-05 -3.35963 
395 2 11.1497 11.391 -23.7922 2.83976e-05 -3.35964 
396 2 8.85642 9.67107 -23.7925 2.92618e-05 -3.35964 
397 2 4.55896 3.45705 -24.4625 2.87954e-05 -3.35965 
398 2 6.27782 15.497 -24.4617 2.68042e-05 -3.35965 
399 2 3.98458 13.7771 -24.4616 2.62843e-05 -3.35965 
400 2 1.69133 12.0573 -24.4617 2.61512e-05 -3.35965 
401 2 6.85205 5.17723 -24.4626 2.89581e-05 -3.35966 
402 2 2.26592 1.73689 -24.4623 2.81696e-05 -3.35965 
403 2 14.3065 0.0167997 -24.462 2.76488e-05 -3.35965 
404 2 8.571 17.2169 -24.4618 2.72987e-05 -3.35965 
405 2 -0.601925 10.3374 -24.462 2.65861e-05 -3.35966 
406 2 11.4384 8.61743 -24.4622 2.74581e-05 -3.35966 
407 2 9.14521 6.89737 -24.4625 2.84075e-05 -3.35966 
408 2 4.84786 0.683437 -25.1318 2.58908e-05 -3.35967 
409 2 6.56641 12.7238 -25.1314 2.43445e-05 -3.35968 
410 2 4.27314 11.0039 -25.1316 2.45145e-05 -3.35968 
411 2 1.9799 9.28396 -25.1318 2.49273e-05 -3.35968 
412 2 7.14093 2.40354 -25.132 2.65888e-05 -3.35968 
413 2 -0.887612 17.8836 -25.1316 2.50715e-05 -3.35967 
414 2 11.1529 16.1636 -25.1314 2.45773e-05 -3.35967 
415 2 8.85967 14.4437 -25.1314 2.43785e-05 -3.35968 
416 2 -0.313297 7.56392 -25.132 2.55323e-05 -3.35968 
417 2 11.7271 5.84383 -25.1321 2.62013e-05 -3.35967 
418 2 9.43403 4.12369 -25.1321 2.66758e-05 -3.35968 
419 2 1.69415 16.8304 -25.8013 2.29145e-05 -3.35969 
420 2 6.85487 9.95067 -25.8015 2.29958e-05 -3.3597 
421 2 4.56164 8.23066 -25.8017 2.34057e-05 -3.3597 
422 2 2.26847 6.51058 -25.8018 2.3725e-05 -3.3597 
423 2 3.98727 18.5503 -25.8015 2.36069e-05 -3.35969 
424 2 -0.599014 15.1104 -25.8012 2.24325e-05 -3.35969 
425 2 11.4414 13.3905 -25.8012 2.23601e-05 -3.3597 
426 2 9.14812 11.6706 -25.8013 2.26005e-05 -3.3597 
427 2 -0.0246463 4.79047 -25.8018 2.39519e-05 -3.35969 
428 2 12.0159 3.07034 -25.8018 2.41189e-05 -3.35969 
429 2 9.72278 1.35024 -25.8017 2.407e-05 -3.35969 
430 2 1.98258 14.0574 -26.4711 2.05968e-05 -3.35971 
431 2 7.1433 7.17751 -26.4717 2.18372e-05 -3.35972 
432 2 4.85015 5.45741 -26.4717 2.20194e-05 -3.35972 
433 2 2.55704 3.7373 -26.4717 2.19325e-05 -3.35971 
434 2 4.27578 15.7773 -26.4712 2.08958e-05 -3.35971 
435 2 -0.310636 12.3375 -26.4712 2.0612e-05 -3.35971 
436 2 11.7297 10.6175 -26.4714 2.09393e-05 -3.35972 
437 2 9.4365 8.89756 -26.4715 2.14167e-05 -3.35972 
438 2 0.26396 2.0172 -26.4716 2.17426e-05 -3.35971 
439 2 12.3045 0.297139 -26.4714 2.15625e-05 -3.35971 
440 2 6.56894 17.4973 -26.4713 2.12913e-05 -3.35971 
441 2 2.27085 11.2846 -27.1414 1.90596e-05 -3.35973 
442 2 7.43174 4.4044 -27.1417 2.02473e-05 -3.35973 
443 2 5.13862 2.6843 -27.1416 2.00795e-05 -3.35973 
444 2 2.84553 0.964239 -27.1415 1.97164e-05 -3.35973 
445 2 4.56407 13.0045 -27.1413 1.896e-05 -3.35973 
446 2 -0.0223652 9.56459 -27.1415 1.93519e-05 -3.35973 
447 2 12.018 7.84456 -27.1416 1.97482e-05 -3.35973 
448 2 9.72487 6.12449 -27.1417 2.01035e-05 -3.35973 
449 2 -2.88998 18.1644 -27.1414 1.93914e-05 -3.35973 
450 2 9.15048 16.4444 -27.1413 1.91836e-05 -3.35973 
451 2 6.85729 14.7244 -27.1412 1.90331e-05 -3.35973 
452 2 2.55905 8.51176 -27.8117 1.78853e-05 -3.35975 
453 2 7.7201 1.63148 -27.8117 1.8246e-05 -3.35975 
454 2 1.98458 18.8316 -27.8116 1.79166e-05 -3.35975 
455 2 -0.308553 17.1116 -27.8115 1.75748e-05 -3.35975 
456 2 4.85225 10.2318 -27.8116 1.76586e-05 -3.35975 
457 2 0.265879 6.79171 -27.8118 1.81145e-05 -3.35975 
458 2 12.3063 5.07163 -27.8118 1.83019e-05 -3.35975 
459 2 10.0132 3.35155 -27.8118 1.83782e-05 -3.35975 
460 2 -2.60172 15.3916 -27.8114 1.73929e-05 -3.35975 
461 2 9.43869 13.6717 -27.8114 1.73819e-05 -3.35975 
462 2 7.14547 11.9518 -27.8115 1.74813e-05 -3.35975 
463 2 2.84723 5.73899 -28.4821 1.6603e-05 -3.35976 
464 2 4.56593 17.7789 -28.4818 1.62298e-05 -3.35976 
465 2 2.27277 16.059 -28.4817 1.59859e-05 -3.35976 
466 2 -0.0204146 14.339 -28.4817 1.58596e-05 -3.35976 
467 2 5.14038 7.45906 -28.482 1.65104e-05 -3.35977 
468 2 0.554099 4.01892 -28.482 1.66074e-05 -3.35976 
469 2 12.5946 2.29885 -28.482 1.6561e-05 -3.35976 
470 2 10.3015 0.578812 -28.4819 1.64461e-05 -3.35976 
471 2 12.02 12.6191 -28.4818 1.59141e-05 -3.35976 
472 2 9.72677 10.8991 -28.4819 1.60982e-05 -3.35977 
473 2 7.43357 9.17909 -28.482 1.63239e-05 -3.35977 
474 2 3.13536 2.96635 -29.1524 1.50872e-05 -3.35978 
475 2 4.85399 15.0065 -29.1521 1.4558e-05 -3.35978 
476 2 2.56079 13.2865 -29.1521 1.45135e-05 -3.35978 
477 2 0.267593 11.5665 -29.1522 1.45953e-05 -3.35978 
478 2 5.42849 4.68641 -29.1524 1.51851e-05 -3.35978 
479 2 0.842243 1.24631 -29.1523 1.49372e-05 -3.35978 
480 2 9.44032 18.4464 -29.1522 1.48009e-05 -3.35978 
481 2 7.14716 16.7264 -29.1522 1.46743e-05 -3.35978 
482 2 12.308 9.84655 -29.1523 1.47817e-05 -3.35978 
483 2 10.0148 8.12653 -29.1524 1.49968e-05 -3.35978 
484 2 7.72164 6.40648 -29.1524 1.51542e-05 -3.35978 
485 2 3.42341 0.193892 -29.8227 1.35225e-05 -3.35979 
486 2 5.14192 12.2341 -29.8227 1.33142e-05 -3.35979 
487 2 2.84872 10.5141 -29.8228 1.34098e-05 -3.35979 
488 2 0.555535 8.79411 -29.8228 1.35525e-05 -3.35979 
489 2 5.71654 1.91392 -29.8228 1.36989e-05 -3.35979 
490 2 -2.31214 17.394 -29.8227 1.33745e-05 -3.35979 
491 2 9.7283 15.6741 -29.8227 1.32977e-05 -3.35979 
492 2 7.43512 13.9541 -29.8227 1.32796e-05 -3.35979 
493 2 12.596 7.07407 -29.8229 1.37005e-05 -3.35979 
494 2 10.3028 5.35402 -29.8229 1.38037e-05 -3.35979 
495 2 8.00967 3.63396 -29.8229 1.38105e-05 -3.35979 
496 2 0.268925 16.3418 -30.4933 1.21426e-05 -3.3598 
497 2 5.42978 9.4618 -30.4934 1.23282e-05 -3.35981 
498 2 3.1366 7.74178 -30.4935 1.24256e-05 -3.35981 
499 2 0.843444 6.02173 -30.4935 1.2492e-05 -3.35981 
500 2 2.56208 18.0617 -30.4933 1.22648e-05 -3.3598 
501 2 -2.02425 14.6218 -30.4933 1.20984e-05 -3.35981 
502 2 10.0162 12.9018 -30.4933 1.21355e-05 -3.35981 
503 2 7.72297 11.1818 -30.4934 1.22223e-05 -3.35981 
504 2 12.8839 4.30168 -30.4935 1.25183e-05 -3.35981 
505 2 10.5908 2.58163 -30.4935 1.24946e-05 -3.35981 
506 2 8.29763 0.861605 -30.4934 1.24046e-05 -3.35981 
507 2 0.556724 13.5696 -31.164 1.10482e-05 -3.35982 
508 2 5.7176 6.68954 -31.1642 1.13803e-05 -3.35982 
509 2 3.42445 4.9695 -31.1642 1.13913e-05 -3.35982 
510 2 1.13131 3.24946 -31.1642 1.13537e-05 -3.35982 
511 2 2.8499 15.2896 -31.164 1.10618e-05 -3.35982 
512 2 -1.73646 11.8496 -31.1641 1.11058e-05 -3.35982 
513 2 10.304 10.1296 -31.1641 1.12076e-05 -3.35982 
514 2 8.01077 8.40958 -31.1642 1.13118e-05 -3.35982 
515 2 13.1718 1.52942 -31.1641 1.1293e-05 -3.35982 
516 2 7.43623 18.7296 -31.1641 1.12189e-05 -3.35982 
517 2 5.14307 17.0096 -31.164 1.11329e-05 -3.35982 
518 2 0.844443 10.7975 -31.835 1.01805e-05 -3.35983 
519 2 6.00539 3.91737 -31.835 1.0381e-05 -3.35983 
520 2 3.71224 2.19734 -31.835 1.0317e-05 -3.35983 
521 2 1.4191 0.477319 -31.8349 1.02357e-05 -3.35983 
522 2 3.13763 12.5175 -31.8349 1.01214e-05 -3.35983 
523 2 -1.44874 9.07748 -31.835 1.02662e-05 -3.35983 
524 2 10.5917 7.35745 -31.835 1.03476e-05 -3.35983 
525 2 8.29854 5.63741 -31.835 1.03931e-05 -3.35983 
526 2 10.0172 17.6775 -31.8349 1.01692e-05 -3.35983 
527 2 7.72399 15.9575 -31.8349 1.01252e-05 -3.35983 
528 2 5.43081 14.2375 -31.8349 1.01052e-05 -3.35983 
529 2 1.13212 8.02544 -32.506 9.40672e-06 -3.35984 
530 2 6.29311 1.14532 -32.5059 9.38683e-06 -3.35984 
531 2 0.557559 18.3454 -32.5059 9.31156e-06 -3.35984 
532 2 -1.7356 16.6255 -32.5058 9.25624e-06 -3.35984 
533 2 3.42529 9.74546 -32.5059 9.34913e-06 -3.35984 
534 2 13.1726 6.30541 -32.506 9.45098e-06 -3.35984 
535 2 10.8794 4.58537 -32.506 9.46823e-06 -3.35984 
536 2 8.58626 2.86534 -32.5059 9.44694e-06 -3.35984 
537 2 10.3048 14.9055 -32.5058 9.23864e-06 -3.35984 
538 2 8.01165 13.1855 -32.5059 9.25439e-06 -3.35984 
539 2 5.71847 11.4655 -32.5059 9.29402e-06 -3.35984 
540 2 1.41976 5.25345 -33.177 8.63887e-06 -3.35985 
541 2 3.13835 17.2935 -33.1769 8.49823e-06 -3.35985 
542 2 0.845184 15.5735 -33.1769 8.46226e-06 -3.35985 
543 2 -1.44799 13.8535 -33.1769 8.46128e-06 -3.35985 
544 2 3.71291 6.97349 -33.177 8.62847e-06 -3.35985 
545 2 13.4602 3.53342 -33.177 8.62716e-06 -3.35985 
546 2 11.1671 1.8134 -33.177 8.59719e-06 -3.35985 
547 2 8.87391 0.0933845 -33.1769 8.5508e-06 -3.35985 
548 2 10.5924 12.1335 -33.1769 8.49389e-06 -3.35985 
549 2 8.29925 10.4135 -33.177 8.5443e-06 -3.35985 
550 2 6.00608 8.69351 -33.177 8.59427e-06 -3.35985 
551 2 1.70735 2.48156 -33.8481 7.88087e-06 -3.35986 
552 2 3.42591 14.5217 -33.8481 7.7673e-06 -3.35986 
553 2 1.13273 12.8017 -33.8481 7.7782e-06 -3.35986 
554 2 -1.16044 11.0817 -33.8481 7.81337e-06 -3.35986 
555 2 4.0005 4.20158 -33.8482 7.9109e-06 -3.35986 
556 2 13.7478 0.76154 -33.8481 7.84386e-06 -3.35986 
557 2 8.01225 17.9617 -33.8481 7.80908e-06 -3.35986 
558 2 5.71908 16.2417 -33.8481 7.78084e-06 -3.35986 
559 2 10.88 9.36166 -33.8482 7.86008e-06 -3.35986 
560 2 8.58682 7.64164 -33.8482 7.90067e-06 -3.35986 
561 2 6.29366 5.92161 -33.8482 7.91981e-06 -3.35986 
562 2 -1.44752 18.6299 -34.5194 7.18602e-06 -3.35987 
563 2 3.71341 11.7499 -34.5194 7.17462e-06 -3.35987 
564 2 1.42024 10.0299 -34.5194 7.20553e-06 -3.35987 
565 2 -0.872935 8.30986 -34.5194 7.23917e-06 -3.35987 
566 2 4.28804 1.42976 -34.5194 7.22274e-06 -3.35987 
567 2 10.5929 16.9099 -34.5194 7.16009e-06 -3.35987 
568 2 8.29976 15.1899 -34.5194 7.14988e-06 -3.35987 
569 2 6.00659 13.4699 -34.5194 7.15497e-06 -3.35987 
570 2 11.1675 6.58984 -34.5194 7.26458e-06 -3.35987 