ITEM: TIMESTEP
0
ITEM: NUMBER OF ATOMS
3300
ITEM: BOX BOUNDS xy xz yz pp pp ff
-3.4589791325497936e+00 1.4327317561567636e+01 -3.4505738900097507e+00
-1.0986621735879280e-02 1.8911950882852327e+01 0.0000000000000000e+00
-1.2150000000000000e+02 1.2150000000000000e+02 0.0000000000000000e+00
ITEM: ATOMS id type x y z c_csym c_eng 
1 2 11.4926 8.54102 0.024738 5.90858 -3.36995 
2 2 2.32142 1.65995 0.024738 5.90858 -3.36995 
3 2 -3.42196 18.8626 0.024738 5.90858 -3.36995 
4 2 8.62096 17.1424 0.024738 5.90858 -3.36995 
5 2 -0.550267 10.2613 0.024738 5.90858 -3.36995 
6 2 9.19984 6.82075 0.024738 5.90858 -3.36995 
7 2 6.90704 5.10049 0.024738 5.90858 -3.36995 
8 2 4.61423 3.38022 0.024738 5.90858 -3.36995 
9 2 6.32815 15.4221 0.024738 5.90858 -3.36995 
10 2 4.03535 13.7018 0.024738 5.90858 -3.36995 
11 2 1.74254 11.9816 0.024738 5.90858 -3.36995 
12 2 11.5605 6.06302 -1.22599 2.66587 -3.16453 
13 2 -1.06129 18.1049 -1.22599 2.66587 -3.16453 
14 2 10.9816 16.3846 -1.22599 2.66587 -3.16453 
15 2 8.68882 14.6644 -1.22599 2.66587 -3.16453 
16 2 -0.482403 7.78329 -1.22599 2.66587 -3.16453 
17 2 9.26771 4.34276 -1.22599 2.66587 -3.16453 
18 2 6.9749 2.62249 -1.22599 2.66587 -3.16453 
19 2 4.68209 0.902222 -1.22599 2.66587 -3.16453 
20 2 6.39602 12.9441 -1.22599 2.66587 -3.16453 
21 2 4.10321 11.2238 -1.22599 2.66587 -3.16453 
22 2 1.8104 9.50356 -1.22599 2.66587 -3.16453 
23 2 11.8926 3.23292 -1.76963 4.54258 -3.2559 
24 2 -0.729153 15.2748 -1.76963 4.54258 -3.2559 
25 2 11.3138 13.5545 -1.76963 4.54258 -3.2559 
26 2 9.02096 11.8343 -1.76963 4.54258 -3.2559 
27 2 -0.150269 4.95319 -1.76963 4.54258 -3.2559 
28 2 9.59984 1.51265 -1.76963 4.54258 -3.2559 
29 2 3.85646 18.7153 -1.76963 4.54258 -3.2559 
30 2 1.56365 16.9951 -1.76963 4.54258 -3.2559 
31 2 6.72815 10.114 -1.76963 4.54258 -3.2559 
32 2 4.43534 8.39372 -1.76963 4.54258 -3.2559 
33 2 2.14254 6.67345 -1.76963 4.54258 -3.2559 
34 2 12.2632 0.351586 -1.96894 4.78524 -3.40687 
35 2 -0.358572 12.3935 -1.96894 4.78524 -3.40687 
36 2 11.6843 10.6732 -1.96894 4.78524 -3.40687 
37 2 9.39154 8.95292 -1.96894 4.78524 -3.40687 
38 2 0.220312 2.07185 -1.96894 4.78524 -3.40687 
39 2 6.51985 17.5543 -1.96894 4.78524 -3.40687 
40 2 4.22704 15.834 -1.96894 4.78524 -3.40687 
41 2 1.93423 14.1137 -1.96894 4.78524 -3.40687 
42 2 7.09873 7.23265 -1.96894 4.78524 -3.40687 
43 2 4.80592 5.51239 -1.96894 4.78524 -3.40687 
44 2 2.51312 3.79212 -1.96894 4.78524 -3.40687 
45 2 9.03664 16.5885 -2.97807 0.729708 -3.25796 
46 2 -0.134588 9.70745 -2.97807 0.729708 -3.25796 
47 2 11.9083 7.98718 -2.97807 0.729708 -3.25796 
48 2 9.61552 6.26691 -2.97807 0.729708 -3.25796 
49 2 -3.00628 18.3088 -2.97807 0.729708 -3.25796 
50 2 6.74383 14.8682 -2.97807 0.729708 -3.25796 
51 2 4.45103 13.148 -2.97807 0.729708 -3.25796 
52 2 2.15822 11.4277 -2.97807 0.729708 -3.25796 
53 2 7.32272 4.54665 -2.97807 0.729708 -3.25796 
54 2 5.02991 2.82638 -2.97807 0.729708 -3.25796 
55 2 2.7371 1.10611 -2.97807 0.729708 -3.25796 
56 2 9.40132 13.715 -3.662 0.119075 -3.2941 
57 2 0.230095 6.83397 -3.662 0.119075 -3.2941 
58 2 12.273 5.11371 -3.662 0.119075 -3.2941 
59 2 9.9802 3.39344 -3.662 0.119075 -3.2941 
60 2 -2.6416 15.4353 -3.662 0.119075 -3.2941 
61 2 7.10851 11.9948 -3.662 0.119075 -3.2941 
62 2 4.81571 10.2745 -3.662 0.119075 -3.2941 
63 2 2.5229 8.55424 -3.662 0.119075 -3.2941 
64 2 7.6874 1.67317 -3.662 0.119075 -3.2941 
65 2 1.94402 18.8758 -3.662 0.119075 -3.2941 
66 2 -0.348789 17.1556 -3.662 0.119075 -3.2941 
67 2 9.74718 10.8666 -4.17336 0.366673 -3.33703 
68 2 0.575954 3.98558 -4.17336 0.366673 -3.33703 
69 2 12.6189 2.26531 -4.17336 0.366673 -3.33703 
70 2 10.3261 0.545046 -4.17336 0.366673 -3.33703 
71 2 -2.29574 12.5869 -4.17336 0.366673 -3.33703 
72 2 7.45437 9.14638 -4.17336 0.366673 -3.33703 
73 2 5.16157 7.42611 -4.17336 0.366673 -3.33703 
74 2 2.86876 5.70585 -4.17336 0.366673 -3.33703 
75 2 4.58268 17.7477 -4.17336 0.366673 -3.33703 
76 2 2.28988 16.0274 -4.17336 0.366673 -3.33703 
77 2 -0.00292983 14.3072 -4.17336 0.366673 -3.33703 
78 2 9.98549 8.16156 -4.84499 0.116422 -3.31176 
79 2 0.814259 1.28049 -4.84499 0.116422 -3.31176 
80 2 9.4066 18.4832 -4.84499 0.116422 -3.31176 
81 2 7.1138 16.7629 -4.84499 0.116422 -3.31176 
82 2 12.2783 9.88183 -4.84499 0.116422 -3.31176 
83 2 7.69268 6.44129 -4.84499 0.116422 -3.31176 
84 2 5.39987 4.72102 -4.84499 0.116422 -3.31176 
85 2 3.10707 3.00076 -4.84499 0.116422 -3.31176 
86 2 4.82099 15.0426 -4.84499 0.116422 -3.31176 
87 2 2.52818 13.3224 -4.84499 0.116422 -3.31176 
88 2 0.235376 11.6021 -4.84499 0.116422 -3.31176 
89 2 10.2888 5.3698 -5.53927 0.0351638 -3.34123 
90 2 -2.33297 17.4117 -5.53927 0.0351638 -3.34123 
91 2 9.70995 15.6914 -5.53927 0.0351638 -3.34123 
92 2 7.41714 13.9711 -5.53927 0.0351638 -3.34123 
93 2 12.5816 7.09007 -5.53927 0.0351638 -3.34123 
94 2 7.99603 3.64954 -5.53927 0.0351638 -3.34123 
95 2 5.70322 1.92927 -5.53927 0.0351638 -3.34123 
96 2 3.41042 0.209003 -5.53927 0.0351638 -3.34123 
97 2 5.12434 12.2509 -5.53927 0.0351638 -3.34123 
98 2 2.83153 10.5306 -5.53927 0.0351638 -3.34123 
99 2 0.538725 8.81034 -5.53927 0.0351638 -3.34123 
100 2 10.6018 2.56521 -6.1729 0.0274939 -3.35019 
101 2 -2.01998 14.6071 -6.1729 0.0274939 -3.35019 
102 2 10.0229 12.8868 -6.1729 0.0274939 -3.35019 
103 2 7.73013 11.1665 -6.1729 0.0274939 -3.35019 
104 2 12.8946 4.28547 -6.1729 0.0274939 -3.35019 
105 2 8.30902 0.84494 -6.1729 0.0274939 -3.35019 
106 2 2.56564 18.0476 -6.1729 0.0274939 -3.35019 
107 2 0.27283 16.3273 -6.1729 0.0274939 -3.35019 
108 2 5.43733 9.44627 -6.1729 0.0274939 -3.35019 
109 2 3.14452 7.72601 -6.1729 0.0274939 -3.35019 
110 2 0.851714 6.00574 -6.1729 0.0274939 -3.35019 
111 2 7.43412 18.7237 -6.809 0.0106796 -3.33928 
112 2 -1.7371 11.8426 -6.809 0.0106796 -3.33928 
113 2 10.3058 10.1223 -6.809 0.0106796 -3.33928 
114 2 8.01301 8.40207 -6.809 0.0106796 -3.33928 
115 2 13.1775 1.521 -6.809 0.0106796 -3.33928 
116 2 5.14132 17.0034 -6.809 0.0106796 -3.33928 
117 2 2.84851 15.2831 -6.809 0.0106796 -3.33928 
118 2 0.555705 13.5629 -6.809 0.0106796 -3.33928 
119 2 5.7202 6.6818 -6.809 0.0106796 -3.33928 
120 2 3.4274 4.96153 -6.809 0.0106796 -3.33928 
121 2 1.13459 3.24127 -6.809 0.0106796 -3.33928 
122 2 7.71858 15.9571 -7.47801 0.00897075 -3.3642 
123 2 -1.45265 9.07603 -7.47801 0.00897075 -3.3642 
124 2 10.5903 7.35576 -7.47801 0.00897075 -3.3642 
125 2 8.29746 5.63549 -7.47801 0.00897075 -3.3642 
126 2 10.0114 17.6774 -7.47801 0.00897075 -3.3642 
127 2 5.42577 14.2368 -7.47801 0.00897075 -3.3642 
128 2 3.13296 12.5166 -7.47801 0.00897075 -3.3642 
129 2 0.840157 10.7963 -7.47801 0.00897075 -3.3642 
130 2 6.00465 3.91523 -7.47801 0.00897075 -3.3642 
131 2 3.71185 2.19496 -7.47801 0.00897075 -3.3642 
132 2 1.41904 0.474691 -7.47801 0.00897075 -3.3642 
133 2 8.01115 13.1797 -8.1451 0.00592076 -3.35936 
134 2 13.1756 6.29863 -8.1451 0.00592076 -3.35936 
135 2 10.8828 4.57836 -8.1451 0.00592076 -3.35936 
136 2 8.59003 2.8581 -8.1451 0.00592076 -3.35936 
137 2 10.304 14.9 -8.1451 0.00592076 -3.35936 
138 2 5.71834 11.4594 -8.1451 0.00592076 -3.35936 
139 2 3.42554 9.73916 -8.1451 0.00592076 -3.35936 
140 2 1.13273 8.0189 -8.1451 0.00592076 -3.35936 
141 2 6.29723 1.13783 -8.1451 0.00592076 -3.35936 
142 2 0.553848 18.3405 -8.1451 0.00592076 -3.35936 
143 2 -1.73896 16.6202 -8.1451 0.00592076 -3.35936 
144 2 8.3017 10.405 -8.80148 0.00348139 -3.35744 
145 2 13.4662 3.52393 -8.80148 0.00348139 -3.35744 
146 2 11.1734 1.80366 -8.80148 0.00348139 -3.35744 
147 2 8.88059 0.083392 -8.80148 0.00348139 -3.35744 
148 2 10.5945 12.1253 -8.80148 0.00348139 -3.35744 
149 2 6.0089 8.68473 -8.80148 0.00348139 -3.35744 
150 2 3.71609 6.96446 -8.80148 0.00348139 -3.35744 
151 2 1.42328 5.24419 -8.80148 0.00348139 -3.35744 
152 2 3.13721 17.2861 -8.80148 0.00348139 -3.35744 
153 2 0.8444 15.5658 -8.80148 0.00348139 -3.35744 
154 2 -1.44841 13.8455 -8.80148 0.00348139 -3.35744 
155 2 8.58833 7.63552 -9.46805 0.00196795 -3.36309 
156 2 13.7528 0.754449 -9.46805 0.00196795 -3.36309 
157 2 8.00945 17.9571 -9.46805 0.00196795 -3.36309 
158 2 5.71664 16.2369 -9.46805 0.00196795 -3.36309 
159 2 10.8811 9.35578 -9.46805 0.00196795 -3.36309 
160 2 6.29553 5.91525 -9.46805 0.00196795 -3.36309 
161 2 4.00272 4.19498 -9.46805 0.00196795 -3.36309 
162 2 1.70991 2.47472 -9.46805 0.00196795 -3.36309 
163 2 3.42384 14.5166 -9.46805 0.00196795 -3.36309 
164 2 1.13103 12.7963 -9.46805 0.00196795 -3.36309 
165 2 -1.16178 11.0761 -9.46805 0.00196795 -3.36309 
166 2 8.87635 4.86419 -10.1403 0.00142601 -3.36331 
167 2 10.5903 16.9061 -10.1403 0.00142601 -3.36331 
168 2 8.29747 15.1858 -10.1403 0.00142601 -3.36331 
169 2 6.00466 13.4655 -10.1403 0.00142601 -3.36331 
170 2 11.1692 6.58446 -10.1403 0.00142601 -3.36331 
171 2 6.58354 3.14392 -10.1403 0.00142601 -3.36331 
172 2 4.29074 1.42366 -10.1403 0.00142601 -3.36331 
173 2 -1.45264 18.6263 -10.1403 0.00142601 -3.36331 
174 2 3.71185 11.7453 -10.1403 0.00142601 -3.36331 
175 2 1.41905 10.025 -10.1403 0.00142601 -3.36331 
176 2 -0.873759 8.30473 -10.1403 0.00142601 -3.36331 
177 2 9.16555 2.09129 -10.8101 0.000908374 -3.36189 
178 2 10.8795 14.1332 -10.8101 0.000908374 -3.36189 
179 2 8.58667 12.4129 -10.8101 0.000908374 -3.36189 
180 2 6.29386 10.6926 -10.8101 0.000908374 -3.36189 
181 2 11.4584 3.81155 -10.8101 0.000908374 -3.36189 
182 2 6.87275 0.37102 -10.8101 0.000908374 -3.36189 
183 2 1.12937 17.5737 -10.8101 0.000908374 -3.36189 
184 2 -1.16344 15.8534 -10.8101 0.000908374 -3.36189 
185 2 4.00106 8.97236 -10.8101 0.000908374 -3.36189 
186 2 1.70825 7.25209 -10.8101 0.000908374 -3.36189 
187 2 -0.584558 5.53182 -10.8101 0.000908374 -3.36189 
188 2 6.00303 18.2429 -11.4809 0.000404334 -3.36183 
189 2 11.1675 11.3618 -11.4809 0.000404334 -3.36183 
190 2 8.87472 9.64152 -11.4809 0.000404334 -3.36183 
191 2 6.58191 7.92126 -11.4809 0.000404334 -3.36183 
192 2 11.7464 1.04019 -11.4809 0.000404334 -3.36183 
193 2 3.71022 16.5226 -11.4809 0.000404334 -3.36183 
194 2 1.41741 14.8023 -11.4809 0.000404334 -3.36183 
195 2 -0.875394 13.0821 -11.4809 0.000404334 -3.36183 
196 2 4.2891 6.20099 -11.4809 0.000404334 -3.36183 
197 2 1.9963 4.48072 -11.4809 0.000404334 -3.36183 
198 2 -0.29651 2.76046 -11.4809 0.000404334 -3.36183 
199 2 6.29094 15.4717 -12.1543 0.000234623 -3.362 
200 2 11.4554 8.5906 -12.1543 0.000234623 -3.362 
201 2 9.16263 6.87033 -12.1543 0.000234623 -3.362 
202 2 6.86983 5.15007 -12.1543 0.000234623 -3.362 
203 2 8.58375 17.1919 -12.1543 0.000234623 -3.362 
204 2 3.99813 13.7514 -12.1543 0.000234623 -3.362 
205 2 1.70533 12.0311 -12.1543 0.000234623 -3.362 
206 2 -0.587478 10.3109 -12.1543 0.000234623 -3.362 
207 2 4.57702 3.4298 -12.1543 0.000234623 -3.362 
208 2 2.28421 1.70953 -12.1543 0.000234623 -3.362 
209 2 14.3271 -0.0107346 -12.1543 0.000234623 -3.362 
210 2 6.57928 12.6999 -12.8281 0.000138926 -3.36154 
211 2 11.7438 5.81884 -12.8281 0.000138926 -3.36154 
212 2 9.45097 4.09858 -12.8281 0.000138926 -3.36154 
213 2 7.15817 2.37831 -12.8281 0.000138926 -3.36154 
214 2 8.87209 14.4202 -12.8281 0.000138926 -3.36154 
215 2 4.28648 10.9796 -12.8281 0.000138926 -3.36154 
216 2 1.99367 9.25938 -12.8281 0.000138926 -3.36154 
217 2 -0.299137 7.53911 -12.8281 0.000138926 -3.36154 
218 2 4.86536 0.658043 -12.8281 0.000138926 -3.36154 
219 2 -0.878021 17.8607 -12.8281 0.000138926 -3.36154 
220 2 11.1649 16.1404 -12.8281 0.000138926 -3.36154 
221 2 6.86754 9.92826 -13.5019 5.93775e-05 -3.36088 
222 2 12.032 3.0472 -13.5019 5.93775e-05 -3.36088 
223 2 9.73923 1.32693 -13.5019 5.93775e-05 -3.36088 
224 2 3.99585 18.5296 -13.5019 5.93775e-05 -3.36088 
225 2 9.16035 11.6485 -13.5019 5.93775e-05 -3.36088 
226 2 4.57474 8.208 -13.5019 5.93775e-05 -3.36088 
227 2 2.28193 6.48773 -13.5019 5.93775e-05 -3.36088 
228 2 -0.0108778 4.76746 -13.5019 5.93775e-05 -3.36088 
229 2 1.70304 16.8093 -13.5019 5.93775e-05 -3.36088 
230 2 -0.589762 15.0891 -13.5019 5.93775e-05 -3.36088 
231 2 11.4532 13.3688 -13.5019 5.93775e-05 -3.36088 
232 2 7.15566 7.1568 -14.1762 2.5022e-05 -3.36077 
233 2 12.3202 0.275733 -14.1762 2.5022e-05 -3.36077 
234 2 6.57678 17.4784 -14.1762 2.5022e-05 -3.36077 
235 2 4.28397 15.7581 -14.1762 2.5022e-05 -3.36077 
236 2 9.44847 8.87707 -14.1762 2.5022e-05 -3.36077 
237 2 4.86286 5.43653 -14.1762 2.5022e-05 -3.36077 
238 2 2.57005 3.71627 -14.1762 2.5022e-05 -3.36077 
239 2 0.277242 1.996 -14.1762 2.5022e-05 -3.36077 
240 2 1.99117 14.0379 -14.1762 2.5022e-05 -3.36077 
241 2 -0.301641 12.3176 -14.1762 2.5022e-05 -3.36077 
242 2 11.7413 10.5973 -14.1762 2.5022e-05 -3.36077 
243 2 7.44383 4.38527 -14.8508 1.35906e-05 -3.36064 
244 2 9.15775 16.4271 -14.8508 1.35906e-05 -3.36064 
245 2 6.86495 14.7069 -14.8508 1.35906e-05 -3.36064 
246 2 4.57214 12.9866 -14.8508 1.35906e-05 -3.36064 
247 2 9.73664 6.10554 -14.8508 1.35906e-05 -3.36064 
248 2 5.15102 2.66501 -14.8508 1.35906e-05 -3.36064 
249 2 2.85822 0.944741 -14.8508 1.35906e-05 -3.36064 
250 2 -2.88516 18.1474 -14.8508 1.35906e-05 -3.36064 
251 2 2.27933 11.2663 -14.8508 1.35906e-05 -3.36064 
252 2 -0.0134736 9.54608 -14.8508 1.35906e-05 -3.36064 
253 2 12.0294 7.82581 -14.8508 1.35906e-05 -3.36064 
254 2 7.73203 1.6137 -15.5255 6.33939e-06 -3.36037 
255 2 9.44596 13.6556 -15.5255 6.33939e-06 -3.36037 
256 2 7.15315 11.9353 -15.5255 6.33939e-06 -3.36037 
257 2 4.86034 10.215 -15.5255 6.33939e-06 -3.36037 
258 2 10.0248 3.33397 -15.5255 6.33939e-06 -3.36037 
259 2 1.98865 18.8164 -15.5255 6.33939e-06 -3.36037 
260 2 -0.304155 17.0961 -15.5255 6.33939e-06 -3.36037 
261 2 -2.59696 15.3758 -15.5255 6.33939e-06 -3.36037 
262 2 2.56754 8.49477 -15.5255 6.33939e-06 -3.36037 
263 2 0.274729 6.7745 -15.5255 6.33939e-06 -3.36037 
264 2 12.3176 5.05424 -15.5255 6.33939e-06 -3.36037 
265 2 4.56964 17.7651 -16.2003 2.41029e-06 -3.36022 
266 2 9.73413 10.884 -16.2003 2.41029e-06 -3.36022 
267 2 7.44133 9.16376 -16.2003 2.41029e-06 -3.36022 
268 2 5.14852 7.4435 -16.2003 2.41029e-06 -3.36022 
269 2 10.313 0.562428 -16.2003 2.41029e-06 -3.36022 
270 2 2.27683 16.0448 -16.2003 2.41029e-06 -3.36022 
271 2 -0.0159753 14.3246 -16.2003 2.41029e-06 -3.36022 
272 2 -2.30878 12.6043 -16.2003 2.41029e-06 -3.36022 
273 2 2.85571 5.72323 -16.2003 2.41029e-06 -3.36022 
274 2 0.562908 4.00296 -16.2003 2.41029e-06 -3.36022 
275 2 12.6058 2.28269 -16.2003 2.41029e-06 -3.36022 
276 2 4.85781 14.9936 -16.8752 1.03055e-06 -3.36018 
277 2 10.0223 8.1125 -16.8752 1.03055e-06 -3.36018 
278 2 7.7295 6.39223 -16.8752 1.03055e-06 -3.36018 
279 2 5.43669 4.67196 -16.8752 1.03055e-06 -3.36018 
280 2 7.15062 16.7138 -16.8752 1.03055e-06 -3.36018 
281 2 2.565 13.2733 -16.8752 1.03055e-06 -3.36018 
282 2 0.272197 11.553 -16.8752 1.03055e-06 -3.36018 
283 2 12.3151 9.83277 -16.8752 1.03055e-06 -3.36018 
284 2 3.14389 2.9517 -16.8752 1.03055e-06 -3.36018 
285 2 0.85108 1.23143 -16.8752 1.03055e-06 -3.36018 
286 2 9.44342 18.4341 -16.8752 1.03055e-06 -3.36018 
287 2 5.14599 12.222 -17.5501 4.91387e-07 -3.36011 
288 2 10.3105 5.34096 -17.5501 4.91387e-07 -3.36011 
289 2 8.01768 3.62069 -17.5501 4.91387e-07 -3.36011 
290 2 5.72487 1.90042 -17.5501 4.91387e-07 -3.36011 
291 2 7.4388 13.9423 -17.5501 4.91387e-07 -3.36011 
292 2 2.85318 10.5018 -17.5501 4.91387e-07 -3.36011 
293 2 0.560377 8.78149 -17.5501 4.91387e-07 -3.36011 
294 2 12.6033 7.06122 -17.5501 4.91387e-07 -3.36011 
295 2 3.43207 0.180155 -17.5501 4.91387e-07 -3.36011 
296 2 -2.31131 17.3828 -17.5501 4.91387e-07 -3.36011 
297 2 9.7316 15.6626 -17.5501 4.91387e-07 -3.36011 
298 2 5.43417 9.45048 -18.2251 2.02773e-07 -3.36005 
299 2 10.5987 2.56941 -18.2251 2.02773e-07 -3.36005 
300 2 8.30586 0.849145 -18.2251 2.02773e-07 -3.36005 
301 2 2.56248 18.0518 -18.2251 2.02773e-07 -3.36005 
302 2 7.72698 11.1707 -18.2251 2.02773e-07 -3.36005 
303 2 3.14136 7.73021 -18.2251 2.02773e-07 -3.36005 
304 2 0.848557 6.00995 -18.2251 2.02773e-07 -3.36005 
305 2 12.8915 4.28968 -18.2251 2.02773e-07 -3.36005 
306 2 0.269674 16.3315 -18.2251 2.02773e-07 -3.36005 
307 2 -2.02313 14.6113 -18.2251 2.02773e-07 -3.36005 
308 2 10.0198 12.891 -18.2251 2.02773e-07 -3.36005 
309 2 5.72235 6.67894 -18.9001 7.71913e-08 -3.36003 
310 2 7.43627 18.7208 -18.9001 7.71913e-08 -3.36003 
311 2 5.14347 17.0005 -18.9001 7.71913e-08 -3.36003 
312 2 2.85066 15.2803 -18.9001 7.71913e-08 -3.36003 
313 2 8.01516 8.39921 -18.9001 7.71913e-08 -3.36003 
314 2 3.42954 4.95867 -18.9001 7.71913e-08 -3.36003 
315 2 1.13674 3.23841 -18.9001 7.71913e-08 -3.36003 
316 2 13.1797 1.51814 -18.9001 7.71913e-08 -3.36003 
317 2 0.557852 13.56 -18.9001 7.71913e-08 -3.36003 
318 2 -1.73495 11.8397 -18.9001 7.71913e-08 -3.36003 
319 2 10.308 10.1195 -18.9001 7.71913e-08 -3.36003 
320 2 6.01053 3.9074 -19.575 3.25679e-08 -3.36001 
321 2 7.72445 15.9493 -19.575 3.25679e-08 -3.36001 
322 2 5.43164 14.229 -19.575 3.25679e-08 -3.36001 
323 2 3.13884 12.5087 -19.575 3.25679e-08 -3.36001 
324 2 8.30333 5.62767 -19.575 3.25679e-08 -3.36001 
325 2 3.71772 2.18713 -19.575 3.25679e-08 -3.36001 
326 2 1.42491 0.466865 -19.575 3.25679e-08 -3.36001 
327 2 10.0173 17.6695 -19.575 3.25679e-08 -3.36001 
328 2 0.846031 10.7885 -19.575 3.25679e-08 -3.36001 
329 2 -1.44678 9.0682 -19.575 3.25679e-08 -3.36001 
330 2 10.5961 7.34793 -19.575 3.25679e-08 -3.36001 
331 2 6.29871 1.13586 -20.25 1.39293e-08 -3.36 
332 2 8.01263 13.1777 -20.25 1.39293e-08 -3.36 
333 2 5.71982 11.4575 -20.25 1.39293e-08 -3.36 
334 2 3.42702 9.73719 -20.25 1.39293e-08 -3.36 
335 2 8.59151 2.85612 -20.25 1.39293e-08 -3.36 
336 2 0.555326 18.3385 -20.25 1.39293e-08 -3.36 
337 2 -1.73748 16.6183 -20.25 1.39293e-08 -3.36 
338 2 10.3054 14.898 -20.25 1.39293e-08 -3.36 
339 2 1.13421 8.01693 -20.25 1.39293e-08 -3.36 
340 2 -1.1586 6.29666 -20.25 1.39293e-08 -3.36 
341 2 10.8843 4.57639 -20.25 1.39293e-08 -3.36 
342 2 3.13631 17.2873 -20.925 5.42641e-09 -3.35999 
343 2 8.30081 10.4062 -20.925 5.42641e-09 -3.35999 
344 2 6.008 8.68592 -20.925 5.42641e-09 -3.35999 
345 2 3.7152 6.96565 -20.925 5.4264e-09 -3.35999 
346 2 8.87969 0.0845836 -20.925 5.42641e-09 -3.35999 
347 2 0.843506 15.567 -20.925 5.42641e-09 -3.35999 
348 2 -1.4493 13.8467 -20.925 5.42641e-09 -3.35999 
349 2 10.5936 12.1265 -20.925 5.42641e-09 -3.35999 
350 2 1.42239 5.24538 -20.925 5.42641e-09 -3.35999 
351 2 13.4653 3.52512 -20.925 5.42641e-09 -3.35999 
352 2 11.1725 1.80485 -20.925 5.42641e-09 -3.35999 
353 2 3.42449 14.5157 -21.6 2.08546e-09 -3.35998 
354 2 8.58899 7.63464 -21.6 2.08546e-09 -3.35998 
355 2 6.29618 5.91438 -21.6 2.08546e-09 -3.35998 
356 2 4.00337 4.19411 -21.6 2.08546e-09 -3.35998 
357 2 5.7173 16.236 -21.6 2.08546e-09 -3.35998 
358 2 1.13168 12.7954 -21.6 2.08546e-09 -3.35998 
359 2 -1.16112 11.0752 -21.6 2.08546e-09 -3.35998 
360 2 10.8818 9.35491 -21.6 2.08546e-09 -3.35998 
361 2 1.71057 2.47384 -21.6 2.08546e-09 -3.35998 
362 2 13.7535 0.753576 -21.6 2.08546e-09 -3.35998 
363 2 8.0101 17.9562 -21.6 2.08546e-09 -3.35998 
364 2 3.71267 11.7442 -22.275 8.46043e-10 -3.35998 
365 2 8.87717 4.8631 -22.275 8.46043e-10 -3.35998 
366 2 6.58436 3.14284 -22.275 8.46043e-10 -3.35998 
367 2 4.29155 1.42257 -22.275 8.46042e-10 -3.35998 
368 2 6.00548 13.4644 -22.275 8.46043e-10 -3.35998 
369 2 1.41986 10.0239 -22.275 8.46042e-10 -3.35998 
370 2 -0.872943 8.30364 -22.275 8.46042e-10 -3.35998 
371 2 11.17 6.58337 -22.275 8.46043e-10 -3.35998 
372 2 -1.45183 18.6252 -22.275 8.46043e-10 -3.35998 
373 2 10.5911 16.905 -22.275 8.46043e-10 -3.35998 
374 2 8.29828 15.1847 -22.275 8.46043e-10 -3.35998 
375 2 4.00085 8.97263 -22.95 3.35058e-10 -3.35998 
376 2 9.16535 2.09156 -22.95 3.35058e-10 -3.35998 
377 2 6.87254 0.371295 -22.95 3.35058e-10 -3.35998 
378 2 1.12916 17.574 -22.95 3.35058e-10 -3.35998 
379 2 6.29366 10.6929 -22.95 3.35058e-10 -3.35998 
380 2 1.70804 7.25236 -22.95 3.35058e-10 -3.35998 
381 2 -0.584764 5.5321 -22.95 3.35058e-10 -3.35998 
382 2 11.4582 3.81183 -22.95 3.35058e-10 -3.35998 
383 2 -1.16365 15.8537 -22.95 3.35058e-10 -3.35998 
384 2 10.8793 14.1334 -22.95 3.35058e-10 -3.35998 
385 2 8.58646 12.4132 -22.95 3.35058e-10 -3.35998 
386 2 4.28903 6.20109 -23.625 1.26119e-10 -3.35998 
387 2 6.00295 18.243 -23.625 1.26119e-10 -3.35998 
388 2 3.71014 16.5227 -23.625 1.26119e-10 -3.35998 
389 2 1.41734 14.8024 -23.625 1.26119e-10 -3.35998 
390 2 6.58184 7.92136 -23.625 1.26119e-10 -3.35998 
391 2 1.99622 4.48082 -23.625 1.26119e-10 -3.35998 
392 2 -0.296584 2.76055 -23.625 1.26119e-10 -3.35998 
393 2 11.7463 1.04029 -23.625 1.26119e-10 -3.35998 
394 2 -0.875468 13.0822 -23.625 1.26119e-10 -3.35998 
395 2 11.1674 11.3619 -23.625 1.26119e-10 -3.35998 
396 2 8.87464 9.64162 -23.625 1.26119e-10 -3.35998 
397 2 4.57721 3.42955 -24.3 4.7976e-11 -3.35998 
398 2 6.29113 15.4714 -24.3 4.7976e-11 -3.35998 
399 2 3.99832 13.7511 -24.3 4.7976e-11 -3.35998 
400 2 1.70552 12.0309 -24.3 4.79759e-11 -3.35998 
401 2 6.87001 5.14981 -24.3 4.79759e-11 -3.35998 
402 2 2.2844 1.70928 -24.3 4.7976e-11 -3.35998 
403 2 -3.45898 18.912 -24.3 4.7976e-11 -3.35998 
404 2 8.58394 17.1917 -24.3 4.7976e-11 -3.35998 
405 2 -0.587289 10.3106 -24.3 4.7976e-11 -3.35998 
406 2 11.4556 8.59035 -24.3 4.7976e-11 -3.35998 
407 2 9.16282 6.87008 -24.3 4.79759e-11 -3.35998 
408 2 4.86539 0.658006 -24.975 1.85695e-11 -3.35998 
409 2 6.57931 12.6999 -24.975 1.85695e-11 -3.35998 
410 2 4.2865 10.9796 -24.975 1.85695e-11 -3.35998 
411 2 1.9937 9.25934 -24.975 1.85695e-11 -3.35998 
412 2 7.15819 2.37827 -24.975 1.85695e-11 -3.35998 
413 2 -0.877993 17.8607 -24.975 1.85695e-11 -3.35998 
414 2 11.1649 16.1404 -24.975 1.85695e-11 -3.35998 
415 2 8.87212 14.4201 -24.975 1.85695e-11 -3.35998 
416 2 -0.29911 7.53907 -24.975 1.85695e-11 -3.35998 
417 2 11.7438 5.81881 -24.975 1.85695e-11 -3.35998 
418 2 9.451 4.09854 -24.975 1.85694e-11 -3.35998 
419 2 1.70299 16.8094 -25.65 6.97093e-12 -3.35998 
420 2 6.86749 9.92833 -25.65 6.97096e-12 -3.35998 
421 2 4.57468 8.20807 -25.65 6.97099e-12 -3.35998 
422 2 2.28188 6.4878 -25.65 6.97095e-12 -3.35998 
423 2 3.9958 18.5297 -25.65 6.97096e-12 -3.35998 
424 2 -0.589814 15.0891 -25.65 6.97098e-12 -3.35998 
425 2 11.4531 13.3689 -25.65 6.97097e-12 -3.35998 
426 2 9.1603 11.6486 -25.65 6.97092e-12 -3.35998 
427 2 -0.0109306 4.76753 -25.65 6.971e-12 -3.35998 
428 2 12.032 3.04727 -25.65 6.97095e-12 -3.35998 
429 2 9.73918 1.327 -25.65 6.97095e-12 -3.35998 
430 2 1.99117 14.0379 -26.325 2.5607e-12 -3.35997 
431 2 7.15567 7.15679 -26.325 2.5607e-12 -3.35997 
432 2 4.86286 5.43653 -26.325 2.56069e-12 -3.35997 
433 2 2.57006 3.71626 -26.325 2.56071e-12 -3.35997 
434 2 4.28398 15.7581 -26.325 2.56068e-12 -3.35997 
435 2 -0.301635 12.3176 -26.325 2.56071e-12 -3.35997 
436 2 11.7413 10.5973 -26.325 2.56068e-12 -3.35997 
437 2 9.44847 8.87706 -26.325 2.56069e-12 -3.35997 
438 2 0.277249 1.99599 -26.325 2.56069e-12 -3.35997 
439 2 12.3202 0.275725 -26.325 2.56071e-12 -3.35997 
440 2 6.57678 17.4784 -26.325 2.5607e-12 -3.35997 
441 2 2.27935 11.2663 -27 9.51802e-13 -3.35997 
442 2 7.44385 4.38525 -27 9.51805e-13 -3.35997 
443 2 5.15104 2.66498 -27 9.51804e-13 -3.35997 
444 2 2.85823 0.944717 -27 9.51787e-13 -3.35997 
445 2 4.57216 12.9866 -27 9.51804e-13 -3.35997 
446 2 -0.013456 9.54605 -27 9.51805e-13 -3.35997 
447 2 12.0295 7.82579 -27 9.51791e-13 -3.35997 
448 2 9.73665 6.10552 -27 9.51793e-13 -3.35997 
449 2 -2.88515 18.1474 -27 9.51798e-13 -3.35997 
450 2 9.15777 16.4271 -27 9.51792e-13 -3.35997 
451 2 6.86496 14.7069 -27 9.51797e-13 -3.35997 
452 2 2.56753 8.49478 -27.675 3.52935e-13 -3.35997 
453 2 7.73203 1.61371 -27.675 3.52926e-13 -3.35997 
454 2 1.98865 18.8164 -27.675 3.5293e-13 -3.35997 
455 2 -0.30416 17.0961 -27.675 3.52928e-13 -3.35997 
456 2 4.86034 10.215 -27.675 3.52927e-13 -3.35997 
457 2 0.274723 6.77451 -27.675 3.52926e-13 -3.35997 
458 2 12.3176 5.05424 -27.675 3.52924e-13 -3.35997 
459 2 10.0248 3.33398 -27.675 3.52937e-13 -3.35997 
460 2 -2.59697 15.3758 -27.675 3.52919e-13 -3.35997 
461 2 9.44595 13.6556 -27.675 3.52928e-13 -3.35997 
462 2 7.15314 11.9353 -27.675 3.52922e-13 -3.35997 
463 2 2.85571 5.72324 -28.35 1.27936e-13 -3.35997 
464 2 4.56963 17.7651 -28.35 1.27939e-13 -3.35997 
465 2 2.27683 16.0448 -28.35 1.27939e-13 -3.35997 
466 2 -0.0159813 14.3246 -28.35 1.27935e-13 -3.35997 
467 2 5.14852 7.4435 -28.35 1.27934e-13 -3.35997 
468 2 0.562902 4.00297 -28.35 1.27934e-13 -3.35997 
469 2 12.6058 2.2827 -28.35 1.27935e-13 -3.35997 
470 2 10.313 0.562436 -28.35 1.27937e-13 -3.35997 
471 2 -2.30879 12.6043 -28.35 1.27934e-13 -3.35997 
472 2 9.73413 10.884 -28.35 1.27936e-13 -3.35997 
473 2 7.44132 9.16377 -28.35 1.27938e-13 -3.35997 
474 2 3.14389 2.9517 -29.025 4.60777e-14 -3.35997 
475 2 4.85781 14.9936 -29.025 4.60805e-14 -3.35997 
476 2 2.565 13.2733 -29.025 4.60815e-14 -3.35997 
477 2 0.272198 11.553 -29.025 4.60784e-14 -3.35997 
478 2 5.43669 4.67196 -29.025 4.60785e-14 -3.35997 
479 2 0.851082 1.23143 -29.025 4.60798e-14 -3.35997 
480 2 9.44342 18.4341 -29.025 4.60777e-14 -3.35997 
481 2 7.15062 16.7138 -29.025 4.60777e-14 -3.35997 
482 2 12.3151 9.83276 -29.025 4.60793e-14 -3.35997 
483 2 10.0223 8.1125 -29.025 4.6081e-14 -3.35997 
484 2 7.7295 6.39223 -29.025 4.60786e-14 -3.35997 
485 2 3.43207 0.180154 -29.7 1.66789e-14 -3.35997 
486 2 5.14599 12.222 -29.7 1.66783e-14 -3.35997 
487 2 2.85318 10.5018 -29.7 1.66777e-14 -3.35997 
488 2 0.560377 8.78149 -29.7 1.66776e-14 -3.35997 
489 2 5.72487 1.90042 -29.7 1.66772e-14 -3.35997 
490 2 -2.31131 17.3828 -29.7 1.66785e-14 -3.35997 
491 2 9.7316 15.6626 -29.7 1.66789e-14 -3.35997 
492 2 7.4388 13.9423 -29.7 1.66777e-14 -3.35997 
493 2 12.6033 7.06122 -29.7 1.66795e-14 -3.35997 
494 2 10.3105 5.34096 -29.7 1.66795e-14 -3.35997 
495 2 8.01768 3.62069 -29.7 1.66774e-14 -3.35997 
496 2 0.269672 16.3316 -30.375 5.97884e-15 -3.35997 
497 2 5.43417 9.45048 -30.375 5.9797e-15 -3.35997 
498 2 3.14136 7.73022 -30.375 5.97929e-15 -3.35997 
499 2 0.848556 6.00995 -30.375 5.97917e-15 -3.35997 
500 2 2.56248 18.0518 -30.375 5.98012e-15 -3.35997 
501 2 -2.02313 14.6113 -30.375 5.97995e-15 -3.35997 
502 2 10.0198 12.891 -30.375 5.97989e-15 -3.35997 
503 2 7.72698 11.1707 -30.375 5.97952e-15 -3.35997 
504 2 12.8915 4.28968 -30.375 5.9807e-15 -3.35997 
505 2 10.5987 2.56941 -30.375 5.97924e-15 -3.35997 
506 2 8.30586 0.849147 -30.375 5.97984e-15 -3.35997 
507 2 0.557852 13.56 -31.05 2.11643e-15 -3.35997 
508 2 5.72235 6.67894 -31.05 2.11667e-15 -3.35997 
509 2 3.42954 4.95867 -31.05 2.1165e-15 -3.35997 
510 2 1.13674 3.23841 -31.05 2.11644e-15 -3.35997 
511 2 2.85066 15.2803 -31.05 2.11625e-15 -3.35997 
512 2 -1.73495 11.8397 -31.05 2.11682e-15 -3.35997 
513 2 10.308 10.1195 -31.05 2.11665e-15 -3.35997 
514 2 8.01515 8.39921 -31.05 2.11644e-15 -3.35997 
515 2 13.1797 1.51814 -31.05 2.11644e-15 -3.35997 
516 2 7.43627 18.7208 -31.05 2.11696e-15 -3.35997 
517 2 5.14346 17.0005 -31.05 2.11661e-15 -3.35997 
518 2 0.846031 10.7885 -31.725 7.47931e-16 -3.35997 
519 2 6.01053 3.9074 -31.725 7.4802e-16 -3.35997 
520 2 3.71772 2.18713 -31.725 7.48107e-16 -3.35997 
521 2 1.42491 0.466865 -31.725 7.47954e-16 -3.35997 
522 2 3.13884 12.5087 -31.725 7.47791e-16 -3.35997 
523 2 -1.44678 9.0682 -31.725 7.48035e-16 -3.35997 
524 2 10.5961 7.34793 -31.725 7.47731e-16 -3.35997 
525 2 8.30333 5.62767 -31.725 7.479e-16 -3.35997 
526 2 10.0173 17.6695 -31.725 7.48106e-16 -3.35997 
527 2 7.72445 15.9493 -31.725 7.47999e-16 -3.35997 
528 2 5.43164 14.229 -31.725 7.47886e-16 -3.35997 
529 2 1.13421 8.01693 -32.4 2.63931e-16 -3.35997 
530 2 6.29871 1.13586 -32.4 2.63795e-16 -3.35997 
531 2 0.555326 18.3385 -32.4 2.63827e-16 -3.35997 
532 2 -1.73748 16.6183 -32.4 2.63897e-16 -3.35997 
533 2 3.42702 9.73719 -32.4 2.63814e-16 -3.35997 
534 2 -1.1586 6.29666 -32.4 2.63763e-16 -3.35997 
535 2 10.8843 4.57639 -32.4 2.63708e-16 -3.35997 
536 2 8.59151 2.85613 -32.4 2.63967e-16 -3.35997 
537 2 10.3054 14.898 -32.4 2.63691e-16 -3.35997 
538 2 8.01263 13.1777 -32.4 2.63847e-16 -3.35997 
539 2 5.71982 11.4575 -32.4 2.63764e-16 -3.35997 
540 2 1.42239 5.24538 -33.075 9.21724e-17 -3.35997 
541 2 3.13631 17.2873 -33.075 9.21102e-17 -3.35997 
542 2 0.843505 15.567 -33.075 9.22001e-17 -3.35997 
543 2 -1.4493 13.8467 -33.075 9.21907e-17 -3.35997 
544 2 3.7152 6.96565 -33.075 9.20955e-17 -3.35997 
545 2 13.4653 3.52512 -33.075 9.21095e-17 -3.35997 
546 2 11.1725 1.80485 -33.075 9.20997e-17 -3.35997 
547 2 8.87969 0.0845838 -33.075 9.2128e-17 -3.35997 
548 2 10.5936 12.1265 -33.075 9.20942e-17 -3.35997 
549 2 8.30081 10.4062 -33.075 9.21489e-17 -3.35997 
550 2 6.008 8.68592 -33.075 9.2172e-17 -3.35997 
551 2 1.71057 2.47384 -33.75 3.19359e-17 -3.35997 
552 2 3.42449 14.5157 -33.75 3.19753e-17 -3.35997 
553 2 1.13168 12.7954 -33.75 3.2012e-17 -3.35997 
554 2 -1.16112 11.0752 -33.75 3.1927e-17 -3.35997 
555 2 4.00337 4.19411 -33.75 3.19391e-17 -3.35997 
556 2 13.7535 0.753577 -33.75 3.19869e-17 -3.35997 
557 2 8.0101 17.9562 -33.75 3.19216e-17 -3.35997 
558 2 5.7173 16.236 -33.75 3.19212e-17 -3.35997 
559 2 10.8818 9.35491 -33.75 3.19438e-17 -3.35997 
560 2 8.58899 7.63464 -33.75 3.19884e-17 -3.35997 
561 2 6.29618 5.91438 -33.75 3.19399e-17 -3.35997 
562 2 -1.45183 18.6252 -34.425 1.1059e-17 -3.35997 
563 2 3.71267 11.7442 -34.425 1.10738e-17 -3.35997 
564 2 1.41986 10.0239 -34.425 1.10531e-17 -3.35997 
565 2 -0.872943 8.30364 -34.425 1.10518e-17 -3.35997 
566 2 4.29155 1.42257 -34.425 1.10442e-17 -3.35997 
567 2 10.5911 16.905 -34.425 1.10618e-17 -3.35997 
568 2 8.29828 15.1847 -34.425 1.10797e-17 -3.35997 
569 2 6.00548 13.4644 -34.425 1.10779e-17 -3.35997 
570 2 11.17 6.58337 -34.425 1.10767e-17 -3.35997 
571 2 8.87717 4.8631 -34.425 1.10919e-17 -3.35997 
572 2 6.58436 3.14284 -34.425 1.10648e-17 -3.35997 
573 2 -1.16365 15.8537 -35.1 3.78668e-18 -3.35997 
574 2 4.00085 8.97263 -35.1 3.81019e-18 -3.35997 
575 2 1.70804 7.25236 -35.1 3.80134e-18 -3.35997 
576 2 -0.584764 5.5321 -35.1 3.80193e-18 -3.35997 
577 2 1.12916 17.574 -35.1 3.81349e-18 -3.35997 
578 2 10.8793 14.1334 -35.1 3.8213e-18 -3.35997 
579 2 8.58646 12.4132 -35.1 3.82344e-18 -3.35997 
580 2 6.29366 10.6929 -35.1 3.81163e-18 -3.35997 
581 2 11.4582 3.81183 -35.1 3.82929e-18 -3.35997 