ITEM: TIMESTEP
0
ITEM: NUMBER OF ATOMS
3301
ITEM: BOX BOUNDS xy xz yz pp pp ff
-3.4488089469397427e+00 1.4327209733417504e+01 -3.4405115325497753e+00
-1.2253133574121774e-02 1.8913217394690477e+01 0.0000000000000000e+00
-1.2150000000000000e+02 1.2150000000000000e+02 0.0000000000000000e+00
ITEM: ATOMS id type x y z c_csym c_eng 
1 2 11.5102 8.51945 0.0716823 6.06675 -3.36131 
2 2 2.30973 1.61584 0.0871092 6.43237 -3.34966 
3 2 -3.36704 18.8649 0.0876439 6.42002 -3.34955 
4 2 8.63659 17.2215 0.0503877 5.39468 -3.38357 
5 2 -0.533501 10.2393 0.0587657 6.09437 -3.35863 
6 2 9.21688 6.7998 0.0745576 5.93075 -3.36168 
7 2 6.89625 5.08163 0.0687723 5.67952 -3.35658 
8 2 4.54404 3.39624 0.0464049 5.42149 -3.38476 
9 2 6.3619 15.4326 0.0763619 3.88193 -3.35956 
10 2 4.06288 13.6798 0.0697916 3.62623 -3.36184 
11 2 1.76429 11.9533 0.0626464 5.99476 -3.36249 
12 2 11.5502 6.0809 -1.23534 2.89773 -3.24633 
13 2 -1.06154 18.1183 -1.27376 3.32907 -3.21804 
14 2 10.9574 16.427 -1.26016 3.16507 -3.25197 
15 2 8.66792 14.7079 -1.24667 2.95757 -3.23494 
16 2 -0.502484 7.79056 -1.24717 3.05088 -3.24894 
17 2 9.26521 4.37055 -1.24061 3.00988 -3.25274 
18 2 6.97452 2.65582 -1.23087 2.79413 -3.24518 
19 2 4.66052 0.943392 -1.25365 3.13115 -3.25256 
20 2 6.37883 12.9813 -1.25725 3.20155 -3.22993 
21 2 4.08419 11.2448 -1.25744 3.20182 -3.22793 
22 2 1.78859 9.50264 -1.24799 3.06711 -3.23811 
23 2 11.8972 3.30073 -1.79996 0.804262 -3.28442 
24 2 -0.755246 15.3211 -1.79547 4.36398 -3.2861 
25 2 11.2767 13.6105 -1.79112 4.53208 -3.28408 
26 2 8.98074 11.8859 -1.79218 4.32625 -3.28637 
27 2 -0.213331 4.96959 -1.80046 0.805147 -3.28376 
28 2 9.67867 1.57845 -1.77582 1.08671 -3.32228 
29 2 3.88819 18.7939 -1.77327 2.28362 -3.29348 
30 2 1.5575 17.0531 -1.79121 3.5945 -3.28808 
31 2 6.67926 10.1563 -1.7896 3.66062 -3.28689 
32 2 4.36179 8.393 -1.77566 2.27225 -3.29367 
33 2 2.0616 6.61657 -1.77722 1.07951 -3.32086 
34 2 12.2261 0.287475 -2.28339 1.89346 -3.30063 
35 2 -0.403414 12.4549 -1.96754 5.3928 -3.39928 
36 2 11.6391 10.742 -1.96684 5.40066 -3.39969 
37 2 9.35276 9.02484 -1.96772 5.37686 -3.40047 
38 2 0.196144 2.10653 -1.95811 3.55185 -3.42261 
39 2 6.45796 17.5643 -2.01887 5.14897 -3.39686 
40 2 4.17322 15.8728 -1.98271 5.26288 -3.3988 
41 2 1.89023 14.166 -1.96955 5.35433 -3.4007 
42 2 7.07897 7.3114 -1.98441 5.28791 -3.39928 
43 2 4.81983 5.58614 -2.02056 5.16818 -3.39654 
44 2 2.58991 3.80923 -2.28407 1.88224 -3.2998 
45 2 9.00577 16.607 -3.08786 0.79863 -3.28403 
46 2 -0.189792 9.77662 -3.0417 1.06476 -3.30262 
47 2 11.8518 8.06411 -3.0424 1.06669 -3.30485 
48 2 9.56579 6.34534 -3.04273 1.04477 -3.30488 
49 2 -3.01287 18.3521 -3.09275 1.02451 -3.29166 
50 2 6.69412 14.9322 -3.05941 1.07089 -3.29608 
51 2 4.39872 13.2181 -3.05282 1.1293 -3.29681 
52 2 2.10271 11.4943 -3.04457 1.10565 -3.29976 
53 2 7.28944 4.6183 -3.04611 0.98299 -3.30349 
54 2 5.03748 2.86864 -3.07614 0.754946 -3.28688 
55 2 2.70722 1.13278 -3.09039 1.02222 -3.29165 
56 2 9.3595 13.7693 -3.74219 0.101492 -3.31009 
57 2 0.176009 6.89588 -3.74104 0.087902 -3.31781 
58 2 12.2149 5.1957 -3.74776 0.0864159 -3.31484 
59 2 9.94169 3.46607 -3.73978 0.0836859 -3.31903 
60 2 -2.67422 15.4913 -3.74681 0.0949818 -3.31599 
61 2 7.06273 12.0522 -3.74098 0.108087 -3.31323 
62 2 4.76523 10.3232 -3.73323 0.107069 -3.31717 
63 2 2.46798 8.60167 -3.72758 0.0891606 -3.32201 
64 2 7.66874 1.74032 -3.7249 0.0776853 -3.3211 
65 2 5.36974 0.0105699 -3.73539 0.090303 -3.32229 
66 2 -0.366433 17.2009 -3.7534 0.117032 -3.30624 
67 2 9.71408 10.9151 -4.2284 0.485119 -3.34955 
68 2 0.517993 4.04212 -4.26038 0.349247 -3.35735 
69 2 12.5837 2.33975 -4.26062 0.350048 -3.35714 
70 2 10.2605 0.605455 -4.26215 0.261506 -3.35025 
71 2 12.0073 12.6366 -4.22726 0.476608 -3.35097 
72 2 7.42103 9.19916 -4.22798 0.461553 -3.35155 
73 2 5.12944 7.48538 -4.22796 0.405456 -3.35534 
74 2 2.83225 5.78835 -4.26198 0.256646 -3.35171 
75 2 4.54719 17.7993 -4.22653 0.411484 -3.35614 
76 2 2.26348 16.0735 -4.23059 0.465271 -3.35058 
77 2 -0.0305838 14.3513 -4.23168 0.480289 -3.34941 
78 2 9.94537 8.22191 -4.9644 0.190601 -3.31175 
79 2 0.771275 1.3406 -4.97836 0.217042 -3.30806 
80 2 9.37774 18.5322 -4.99713 0.0722302 -3.31016 
81 2 7.07178 16.8196 -4.97396 0.16748 -3.31221 
82 2 12.2387 9.94212 -4.96216 0.190765 -3.31284 
83 2 7.65402 6.50238 -4.96488 0.178744 -3.31352 
84 2 5.36635 4.78393 -4.96719 0.152998 -3.31556 
85 2 3.07822 3.05068 -4.99343 0.0682338 -3.31195 
86 2 4.7814 15.0994 -4.97014 0.195777 -3.31027 
87 2 2.48896 13.3771 -4.96525 0.199135 -3.31211 
88 2 0.19551 11.6581 -4.96153 0.192629 -3.31269 
89 2 10.2511 5.4206 -5.65413 0.0277903 -3.34403 
90 2 -2.35311 17.4529 -5.66357 0.0212178 -3.34746 
91 2 9.68453 15.7327 -5.66078 0.0193135 -3.34873 
92 2 7.38771 14.0158 -5.65255 0.0269798 -3.34553 
93 2 12.5481 7.14398 -5.6541 0.0287352 -3.344 
94 2 7.96366 3.6961 -5.6485 0.0246193 -3.34531 
95 2 5.67816 1.97197 -5.65347 0.016838 -3.35208 
96 2 3.38472 0.248885 -5.66079 0.0206941 -3.34908 
97 2 5.09337 12.2944 -5.649 0.0284813 -3.34693 
98 2 2.8005 10.5744 -5.64537 0.0274112 -3.34798 
99 2 0.508137 8.8586 -5.64785 0.0275541 -3.34442 
100 2 10.578 2.59957 -6.27135 0.0378798 -3.35922 
101 2 -2.03413 14.6355 -6.26753 0.0463568 -3.35664 
102 2 10.0068 12.9161 -6.26546 0.0465883 -3.35586 
103 2 7.71276 11.1974 -6.26482 0.0460056 -3.35445 
104 2 12.867 4.32531 -6.27863 0.0357238 -3.34646 
105 2 8.28045 0.876 -6.26588 0.0351404 -3.35107 
106 2 2.55244 18.078 -6.26498 0.0423005 -3.35709 
107 2 0.261548 16.3542 -6.27183 0.0449601 -3.35403 
108 2 5.41934 9.47902 -6.26287 0.0425763 -3.35449 
109 2 3.12572 7.76426 -6.26561 0.0351336 -3.34914 
110 2 0.828783 6.04 -6.27119 0.0381395 -3.35864 
111 2 7.41225 18.7635 -6.93058 0.00826595 -3.34014 
112 2 -1.76004 11.8817 -6.92417 0.0122447 -3.33345 
113 2 10.2817 10.1621 -6.92473 0.0122505 -3.33299 
114 2 7.98763 8.44228 -6.92454 0.0118713 -3.33335 
115 2 13.1475 1.55982 -6.93431 0.00883003 -3.33667 
116 2 5.11839 17.0437 -6.92632 0.0127128 -3.33382 
117 2 2.82701 15.3215 -6.92661 0.013056 -3.33361 
118 2 0.533749 13.6001 -6.92571 0.0126282 -3.33361 
119 2 5.69474 6.72296 -6.92425 0.0113899 -3.33443 
120 2 3.40311 5.0022 -6.92846 0.0075723 -3.34101 
121 2 1.10813 3.28165 -6.93348 0.0085199 -3.3371 
122 2 7.70381 15.9846 -7.5968 0.00648176 -3.35786 
123 2 -1.46919 9.10729 -7.59174 0.0062659 -3.35766 
124 2 10.5711 7.38667 -7.59337 0.00631793 -3.3576 
125 2 8.27737 5.66476 -7.593 0.00609639 -3.35733 
126 2 10.0004 17.7039 -7.60399 0.0058889 -3.35319 
127 2 5.41084 14.2648 -7.59318 0.00615461 -3.35798 
128 2 3.11773 12.5444 -7.59089 0.00587221 -3.35865 
129 2 0.824633 10.8254 -7.58996 0.00595343 -3.35805 
130 2 5.98705 3.94379 -7.59413 0.00591153 -3.35791 
131 2 3.69544 2.22071 -7.60181 0.00539687 -3.35366 
132 2 1.39876 0.502198 -7.59782 0.00659715 -3.35934 
133 2 8.0058 13.1951 -8.2462 0.00578303 -3.3577 
134 2 13.1662 6.31719 -8.24956 0.00560506 -3.35721 
135 2 10.871 4.59549 -8.24969 0.00558077 -3.3572 
136 2 8.57904 2.87377 -8.24622 0.0053285 -3.35853 
137 2 10.3 14.9145 -8.24804 0.0059918 -3.35704 
138 2 5.71204 11.4753 -8.24501 0.00544167 -3.35801 
139 2 3.41864 9.75578 -8.24424 0.00511579 -3.35709 
140 2 1.12496 8.03626 -8.24568 0.00531367 -3.35881 
141 2 6.28705 1.15226 -8.24632 0.00529917 -3.35605 
142 2 0.553155 18.3564 -8.24919 0.00545101 -3.35684 
143 2 -1.74084 16.6354 -8.25003 0.0057374 -3.35689 
144 2 8.29515 10.4209 -8.898 0.00185169 -3.35015 
145 2 13.4559 3.53967 -8.90291 0.00218014 -3.35084 
146 2 11.1612 1.81878 -8.90144 0.00188706 -3.35115 
147 2 8.86806 0.0980278 -8.89897 0.00202014 -3.35118 
148 2 10.5891 12.1409 -8.89817 0.00189528 -3.35016 
149 2 6.00147 8.70094 -8.89762 0.0018262 -3.35038 
150 2 3.70818 6.98097 -8.89814 0.00194533 -3.35131 
151 2 1.4147 5.26089 -8.90092 0.00184638 -3.35133 
152 2 3.13468 17.3026 -8.89882 0.00191409 -3.35061 
153 2 0.841625 15.5811 -8.89991 0.00194864 -3.3498 
154 2 -1.45249 13.8609 -8.89873 0.00192128 -3.35047 
155 2 8.58297 7.64781 -9.56298 0.00196422 -3.35804 
156 2 13.7441 0.76539 -9.56656 0.0020455 -3.35769 
157 2 8.00876 17.97 -9.56522 0.00199929 -3.35779 
158 2 5.71554 16.2493 -9.56362 0.00196163 -3.35807 
159 2 10.877 9.3683 -9.56287 0.00196577 -3.35801 
160 2 6.28969 5.92746 -9.56293 0.00191361 -3.35784 
161 2 3.99666 4.20733 -9.56424 0.00188857 -3.3578 
162 2 1.7026 2.48599 -9.56614 0.00198411 -3.35775 
163 2 3.42263 14.5285 -9.56293 0.00188787 -3.35825 
164 2 1.12922 12.808 -9.56237 0.0018587 -3.35814 
165 2 -1.16445 11.0883 -9.56227 0.0019232 -3.35809 
166 2 8.87298 4.87104 -10.2246 0.0016274 -3.35847 
167 2 10.594 16.9132 -10.2267 0.00173485 -3.35782 
168 2 8.29992 15.1929 -10.225 0.00163912 -3.35843 
169 2 6.00627 13.4727 -10.2238 0.00156991 -3.35858 
170 2 11.1667 6.59209 -10.225 0.00167672 -3.35888 
171 2 6.58019 3.15025 -10.2244 0.00156225 -3.35856 
172 2 4.28723 1.42942 -10.226 0.00165968 -3.35775 
173 2 -1.44757 18.6344 -10.2259 0.00164971 -3.35866 
174 2 3.71273 11.7524 -10.2231 0.00152756 -3.35872 
175 2 1.41925 10.0324 -10.2231 0.00152939 -3.35893 
176 2 -0.874495 8.31258 -10.2241 0.00162978 -3.35869 
177 2 9.16241 2.09546 -10.8838 0.00108905 -3.35703 
178 2 10.8832 14.1383 -10.8835 0.0011319 -3.357 
179 2 8.58932 12.4181 -10.8832 0.00107141 -3.35702 
180 2 6.29558 10.6979 -10.8828 0.00104705 -3.35706 
181 2 11.456 3.81625 -10.8849 0.0011702 -3.35715 
182 2 6.86932 0.374779 -10.8834 0.00111007 -3.35714 
183 2 1.13534 17.5795 -10.884 0.00112607 -3.357 
184 2 -1.15843 15.8588 -10.8841 0.00114939 -3.35698 
185 2 4.00203 8.97763 -10.8827 0.00105004 -3.35717 
186 2 1.70852 7.25754 -10.8834 0.00108096 -3.35704 
187 2 -0.585382 5.53706 -10.8848 0.00116908 -3.35716 
188 2 6.00906 18.2483 -11.5471 0.00087458 -3.35881 
189 2 11.1702 11.3664 -11.5465 0.000829375 -3.3589 
190 2 8.87639 9.64608 -11.5466 0.000832779 -3.35887 
191 2 6.58271 7.92568 -11.5465 0.000831333 -3.35884 
192 2 11.7433 1.04342 -11.5479 0.000925524 -3.35889 
193 2 3.71571 16.5277 -11.5468 0.000842247 -3.35894 
194 2 1.42222 14.807 -11.5468 0.000843914 -3.35884 
195 2 -0.871499 13.0866 -11.5465 0.00083135 -3.35894 
196 2 4.28926 6.20535 -11.5467 0.00085628 -3.35875 
197 2 1.99569 4.48484 -11.5476 0.000907389 -3.35888 
198 2 -0.298259 2.76414 -11.5483 0.000921507 -3.35855 
199 2 6.29687 15.4751 -12.2128 0.000711156 -3.35933 
200 2 11.4578 8.59359 -12.2128 0.000703657 -3.35932 
201 2 9.16393 6.87303 -12.2128 0.000707665 -3.35932 
202 2 6.87039 5.15247 -12.2128 0.000702618 -3.35928 
203 2 8.59045 17.1956 -12.2134 0.000761477 -3.35938 
204 2 4.00333 13.7546 -12.2124 0.000685685 -3.35932 
205 2 1.70975 12.0342 -12.2123 0.000670925 -3.35931 
206 2 -0.583907 10.3139 -12.2124 0.000680476 -3.35928 
207 2 4.57696 3.43203 -12.2131 0.000733882 -3.35937 
208 2 2.28328 1.71132 -12.2136 0.000760947 -3.35933 
209 2 14.3249 -0.00929255 -12.2138 0.000773761 -3.35933 
210 2 6.58472 12.7019 -12.8774 0.00059947 -3.35954 
211 2 11.7454 5.82025 -12.878 0.000633509 -3.35961 
212 2 9.45169 4.09958 -12.8778 0.0006223 -3.35956 
213 2 7.15821 2.37899 -12.8776 0.000612951 -3.35945 
214 2 8.87843 14.4223 -12.8776 0.000622961 -3.35947 
215 2 4.29108 10.9815 -12.8772 0.000585489 -3.35959 
216 2 1.99749 9.26113 -12.8773 0.000588204 -3.35958 
217 2 -0.2962 7.54078 -12.8777 0.000614719 -3.35961 
218 2 4.86473 0.658422 -12.8778 0.000645702 -3.35938 
219 2 -0.869517 17.8633 -12.878 0.000639735 -3.35958 
220 2 11.1722 16.1427 -12.878 0.00066211 -3.35938 
221 2 6.87174 9.92971 -13.5435 0.000488057 -3.35972 
222 2 12.0325 3.04774 -13.5442 0.000531251 -3.35971 
223 2 9.73875 1.32717 -13.5439 0.000511013 -3.35975 
224 2 4.00469 18.5321 -13.5437 0.000500732 -3.35975 
225 2 9.16545 11.6501 -13.5436 0.000492015 -3.35973 
226 2 4.57811 8.20929 -13.5435 0.000488108 -3.35972 
227 2 2.28451 6.48887 -13.5438 0.000504102 -3.35974 
228 2 -0.00921637 4.76836 -13.5442 0.000528629 -3.35971 
229 2 1.7111 16.8115 -13.5438 0.000508403 -3.35974 
230 2 -0.582584 15.091 -13.5437 0.000509406 -3.35973 
231 2 11.4592 13.3705 -13.5436 0.000498841 -3.35974 
232 2 7.15855 7.15772 -14.2119 0.000409747 -3.36018 
233 2 12.3193 0.275593 -14.2123 0.000436264 -3.36021 
234 2 6.58509 17.4805 -14.2121 0.000420747 -3.3602 
235 2 4.29148 15.76 -14.2119 0.000411077 -3.36021 
236 2 9.45223 8.87821 -14.212 0.000410579 -3.3602 
237 2 4.86495 5.43724 -14.212 0.00041412 -3.36017 
238 2 2.57132 3.71673 -14.2122 0.00042966 -3.3602 
239 2 0.277568 1.99616 -14.2124 0.000442372 -3.36017 
240 2 1.99785 14.0395 -14.2119 0.000408605 -3.36019 
241 2 -0.295819 12.3191 -14.2118 0.000404524 -3.36019 
242 2 11.746 10.5987 -14.2119 0.000407176 -3.36019 
243 2 7.44562 4.38529 -14.8809 0.000347105 -3.36022 
244 2 9.16589 16.4287 -14.881 0.000358155 -3.36025 
245 2 6.87221 14.7082 -14.8808 0.000346711 -3.36023 
246 2 4.57854 12.9877 -14.8807 0.000339784 -3.36023 
247 2 9.73927 6.10582 -14.881 0.000350156 -3.36024 
248 2 5.15202 2.66478 -14.8809 0.000352656 -3.36024 
249 2 2.85836 0.944239 -14.8811 0.000361745 -3.36024 
250 2 -2.87588 18.1492 -14.8811 0.000364908 -3.36025 
251 2 2.28489 11.2672 -14.8807 0.000336942 -3.36022 
252 2 -0.0087739 9.54682 -14.8808 0.000340661 -3.36023 
253 2 12.033 7.82636 -14.8809 0.000348699 -3.36025 
254 2 7.73255 1.61306 -15.5503 0.000276691 -3.3603 
255 2 9.45283 13.6565 -15.5502 0.000275753 -3.3603 
256 2 7.15913 11.936 -15.5501 0.000271672 -3.36031 
257 2 4.86546 10.2156 -15.5501 0.000269111 -3.36031 
258 2 10.0262 3.33358 -15.5503 0.000281121 -3.36032 
259 2 1.9984 18.818 -15.5502 0.000280379 -3.36029 
260 2 -0.295268 17.0975 -15.5503 0.000281189 -3.36032 
261 2 -2.58897 15.377 -15.5502 0.000281897 -3.36029 
262 2 2.57181 8.49512 -15.5502 0.000270724 -3.36031 
263 2 0.278128 6.77465 -15.5503 0.000278711 -3.36032 
264 2 12.3199 5.05413 -15.5504 0.000284637 -3.36033 
265 2 4.57876 17.7666 -16.2207 0.000215425 -3.36044 
266 2 9.73955 10.8846 -16.2206 0.000213359 -3.36043 
267 2 7.44586 9.16415 -16.2206 0.000212937 -3.36043 
268 2 5.15219 7.44366 -16.2207 0.000212969 -3.36042 
269 2 10.3129 0.561617 -16.2208 0.000219085 -3.36044 
270 2 2.28511 16.0461 -16.2207 0.000215374 -3.36043 
271 2 -0.00856543 14.3256 -16.2206 0.000214746 -3.36043 
272 2 12.0333 12.6051 -16.2206 0.000213359 -3.36043 
273 2 2.85854 5.72318 -16.2207 0.000216732 -3.36043 
274 2 0.564847 4.00267 -16.2208 0.000223092 -3.36043 
275 2 12.6066 2.28213 -16.2208 0.000224065 -3.36044 
276 2 4.86555 14.9946 -16.8919 0.000168836 -3.36049 
277 2 10.0263 8.11264 -16.892 0.000169923 -3.3605 
278 2 7.73264 6.39214 -16.892 0.000169704 -3.36049 
279 2 5.43898 4.67164 -16.892 0.00017017 -3.36049 
280 2 7.15922 16.7151 -16.892 0.000171249 -3.3605 
281 2 2.57188 13.2741 -16.8919 0.000167629 -3.36049 
282 2 0.278208 11.5536 -16.8919 0.000167382 -3.36049 
283 2 12.32 9.83313 -16.8919 0.000168739 -3.36049 
284 2 3.14532 2.95113 -16.892 0.000173302 -3.3605 
285 2 0.851623 1.23061 -16.892 0.000176064 -3.3605 
286 2 9.45291 18.4356 -16.892 0.000174614 -3.3605 
287 2 5.15236 12.2226 -17.5636 0.000127603 -3.36045 
288 2 10.3131 5.34059 -17.5637 0.00013093 -3.36046 
289 2 8.01945 3.62008 -17.5637 0.000129945 -3.36045 
290 2 5.72579 1.89957 -17.5637 0.000130111 -3.36045 
291 2 7.44604 13.943 -17.5637 0.000128839 -3.36045 
292 2 2.85869 10.5021 -17.5636 0.000127257 -3.36044 
293 2 0.565009 8.78159 -17.5637 0.000128551 -3.36045 
294 2 12.6068 7.0611 -17.5637 0.000130548 -3.36046 
295 2 3.43211 0.179068 -17.5637 0.000131556 -3.36045 
296 2 -2.30209 17.384 -17.5637 0.000131922 -3.36045 
297 2 9.73973 15.6635 -17.5637 0.000130519 -3.36045 
298 2 5.4391 9.45062 -18.236 9.36436e-05 -3.36044 
299 2 10.5999 2.56862 -18.236 9.62374e-05 -3.36044 
300 2 8.30619 0.848118 -18.236 9.51211e-05 -3.36044 
301 2 2.57201 18.0531 -18.236 9.49877e-05 -3.36044 
302 2 7.73278 11.1711 -18.236 9.39379e-05 -3.36044 
303 2 3.14542 7.73013 -18.236 9.41337e-05 -3.36044 
304 2 0.851745 6.00964 -18.236 9.57167e-05 -3.36044 
305 2 12.8936 4.28913 -18.236 9.68468e-05 -3.36045 
306 2 0.278332 16.3326 -18.236 9.50689e-05 -3.36044 
307 2 -2.01535 14.6121 -18.236 9.48279e-05 -3.36044 
308 2 10.0265 12.8916 -18.236 9.4336e-05 -3.36044 
309 2 5.72582 6.67869 -18.9088 6.93152e-05 -3.36043 
310 2 7.44609 18.7222 -18.9088 7.02801e-05 -3.36044 
311 2 5.15241 17.0017 -18.9088 6.95226e-05 -3.36044 
312 2 2.85873 15.2812 -18.9088 6.91896e-05 -3.36043 
313 2 8.0195 8.39919 -18.9088 6.92833e-05 -3.36044 
314 2 3.43215 4.95819 -18.9088 6.99122e-05 -3.36044 
315 2 1.13847 3.23769 -18.9088 7.08811e-05 -3.36044 
316 2 13.1803 1.51718 -18.9088 7.10492e-05 -3.36044 
317 2 0.56505 13.5607 -18.9088 6.9036e-05 -3.36043 
318 2 -1.72863 11.8402 -18.9088 6.90511e-05 -3.36043 
319 2 10.3132 10.1197 -18.9088 6.92514e-05 -3.36043 
320 2 6.01256 3.90673 -19.582 5.05046e-05 -3.36039 
321 2 7.73283 15.9502 -19.582 5.04824e-05 -3.36039 
322 2 5.43915 14.2297 -19.582 5.00945e-05 -3.36039 
323 2 3.14547 12.5092 -19.582 4.98704e-05 -3.36039 
324 2 8.30624 5.62723 -19.582 5.05203e-05 -3.36039 
325 2 3.71889 2.18623 -19.582 5.08341e-05 -3.36039 
326 2 1.42521 0.465728 -19.582 5.11395e-05 -3.36039 
327 2 10.0265 17.6707 -19.582 5.09469e-05 -3.36039 
328 2 0.851787 10.7887 -19.582 4.99388e-05 -3.36039 
329 2 -1.4419 9.06823 -19.582 5.02876e-05 -3.36039 
330 2 10.5999 7.34773 -19.582 5.05599e-05 -3.36039 
331 2 6.29929 1.13479 -20.2555 3.53419e-05 -3.36034 
332 2 8.01956 13.1783 -20.2555 3.51161e-05 -3.36034 
333 2 5.72588 11.4578 -20.2555 3.49717e-05 -3.36034 
334 2 3.4322 9.73728 -20.2555 3.49621e-05 -3.36034 
335 2 8.59297 2.85529 -20.2555 3.54398e-05 -3.36034 
336 2 0.565102 18.3398 -20.2555 3.54098e-05 -3.36034 
337 2 -1.72858 16.6193 -20.2555 3.54031e-05 -3.36034 
338 2 10.3132 14.8988 -20.2555 3.52604e-05 -3.36034 
339 2 1.13851 8.01679 -20.2555 3.5201e-05 -3.36034 
340 2 13.1803 6.29629 -20.2555 3.55317e-05 -3.36034 
341 2 10.8867 4.57579 -20.2555 3.56081e-05 -3.36034 
342 2 3.1455 17.2883 -20.9293 2.42802e-05 -3.3603 
343 2 8.30627 10.4064 -20.9293 2.42115e-05 -3.3603 
344 2 6.01259 8.68586 -20.9293 2.42017e-05 -3.3603 
345 2 3.71891 6.96536 -20.9293 2.42867e-05 -3.3603 
346 2 8.87969 0.0833646 -20.9293 2.43923e-05 -3.3603 
347 2 0.851815 15.5678 -20.9293 2.42491e-05 -3.3603 
348 2 -1.44187 13.8473 -20.9293 2.4237e-05 -3.3603 
349 2 10.6 12.1269 -20.9293 2.42283e-05 -3.3603 
350 2 1.42523 5.24486 -20.9294 2.44866e-05 -3.3603 
351 2 13.4671 3.52436 -20.9294 2.46317e-05 -3.36031 
352 2 11.1734 1.80386 -20.9294 2.45619e-05 -3.36031 
353 2 3.43221 14.5164 -21.6034 1.66041e-05 -3.36026 
354 2 8.59299 7.63443 -21.6034 1.66894e-05 -3.36026 
355 2 6.29931 5.91393 -21.6034 1.66966e-05 -3.36026 
356 2 4.00563 4.19343 -21.6034 1.67547e-05 -3.36026 
357 2 5.72589 16.2369 -21.6034 1.66647e-05 -3.36026 
358 2 1.13853 12.7959 -21.6034 1.65872e-05 -3.36026 
359 2 -1.15515 11.0754 -21.6034 1.66178e-05 -3.36026 
360 2 10.8867 9.35493 -21.6034 1.66723e-05 -3.36026 
361 2 1.71195 2.47294 -21.6034 1.68391e-05 -3.36026 
362 2 13.7538 0.752436 -21.6034 1.68505e-05 -3.36027 
363 2 8.01958 17.9574 -21.6034 1.6768e-05 -3.36026 
364 2 3.71893 11.7445 -22.2776 1.11397e-05 -3.36022 
365 2 8.87971 4.86251 -22.2776 1.12555e-05 -3.36022 
366 2 6.58603 3.14201 -22.2776 1.12433e-05 -3.36022 
367 2 4.29234 1.42151 -22.2776 1.12535e-05 -3.36022 
368 2 6.01261 13.465 -22.2776 1.11609e-05 -3.36022 
369 2 1.42525 10.024 -22.2776 1.11587e-05 -3.36022 
370 2 -0.868436 8.3035 -22.2776 1.1214e-05 -3.36022 
371 2 11.1734 6.583 -22.2776 1.12578e-05 -3.36022 
372 2 -1.44185 18.6265 -22.2776 1.12585e-05 -3.36022 
373 2 10.6 16.906 -22.2776 1.12329e-05 -3.36022 
374 2 8.30629 15.1855 -22.2776 1.11969e-05 -3.36022 
375 2 4.00564 8.97258 -22.952 7.35619e-06 -3.36018 
376 2 9.16642 2.09059 -22.952 7.41264e-06 -3.36018 
377 2 6.87274 0.370092 -22.952 7.38665e-06 -3.36018 
378 2 1.13854 17.5751 -22.952 7.37389e-06 -3.36018 
379 2 6.29932 10.6931 -22.952 7.34644e-06 -3.36018 
380 2 1.71196 7.25208 -22.952 7.38455e-06 -3.36018 
381 2 -0.581723 5.53158 -22.952 7.41929e-06 -3.36018 
382 2 11.4601 3.81109 -22.952 7.43037e-06 -3.36018 
383 2 -1.15514 15.8546 -22.952 7.36962e-06 -3.36018 
384 2 10.8867 14.1341 -22.952 7.36341e-06 -3.36018 
385 2 8.593 12.4136 -22.952 7.353e-06 -3.36018 
386 2 4.29235 6.20066 -23.6266 4.82019e-06 -3.36015 
387 2 6.01262 18.2441 -23.6266 4.82329e-06 -3.36015 
388 2 3.71894 16.5236 -23.6266 4.80543e-06 -3.36015 
389 2 1.42526 14.8031 -23.6266 4.79954e-06 -3.36015 
390 2 6.58603 7.92116 -23.6266 4.81154e-06 -3.36015 
391 2 1.99867 4.48017 -23.6266 4.83352e-06 -3.36015 
392 2 -0.295011 2.75967 -23.6266 4.84495e-06 -3.36015 
393 2 11.7468 1.03917 -23.6266 4.84075e-06 -3.36015 
394 2 -0.868427 13.0827 -23.6266 4.79846e-06 -3.36015 
395 2 11.1734 11.3622 -23.6266 4.80325e-06 -3.36015 
396 2 8.87972 9.64166 -23.6266 4.80839e-06 -3.36015 
397 2 4.57906 3.42875 -24.3012 3.10752e-06 -3.36012 
398 2 6.29933 15.4722 -24.3012 3.09591e-06 -3.36012 
399 2 4.00565 13.7517 -24.3012 3.08703e-06 -3.36012 
400 2 1.71197 12.0312 -24.3012 3.08546e-06 -3.36012 
401 2 6.87275 5.14924 -24.3012 3.10657e-06 -3.36012 
402 2 2.28538 1.70825 -24.3012 3.1092e-06 -3.36012 
403 2 14.3272 -0.0122476 -24.3012 3.10816e-06 -3.36012 
404 2 8.59301 17.1927 -24.3012 3.10284e-06 -3.36012 
405 2 -0.581717 10.3107 -24.3012 3.09457e-06 -3.36012 
406 2 11.4601 8.59024 -24.3012 3.10369e-06 -3.36012 
407 2 9.16643 6.86974 -24.3012 3.10745e-06 -3.36012 
408 2 4.86577 0.656833 -24.9759 1.96175e-06 -3.36009 
409 2 6.58604 12.7003 -24.9759 1.95022e-06 -3.36009 
410 2 4.29236 10.9798 -24.9759 1.95219e-06 -3.36009 
411 2 1.99868 9.25932 -24.9759 1.95856e-06 -3.36009 
412 2 7.15946 2.37733 -24.9759 1.96355e-06 -3.36009 
413 2 -0.868421 17.8618 -24.9759 1.96123e-06 -3.36009 
414 2 11.1734 16.1413 -24.9759 1.96005e-06 -3.36009 
415 2 8.87972 14.4208 -24.9759 1.95579e-06 -3.36009 
416 2 -0.295006 7.53882 -24.9759 1.96487e-06 -3.36009 
417 2 11.7468 5.81832 -24.9759 1.96767e-06 -3.36009 
418 2 9.45314 4.09783 -24.9759 1.96673e-06 -3.36009 
419 2 1.71197 16.8104 -25.6507 1.22562e-06 -3.36007 
420 2 6.87275 9.9284 -25.6507 1.2224e-06 -3.36007 
421 2 4.57907 8.2079 -25.6507 1.2248e-06 -3.36007 
422 2 2.28539 6.48741 -25.6507 1.2266e-06 -3.36007 
423 2 4.00565 18.5309 -25.6507 1.2258e-06 -3.36007 
424 2 -0.581711 15.0899 -25.6507 1.22437e-06 -3.36007 
425 2 11.4601 13.3694 -25.6507 1.22187e-06 -3.36007 
426 2 9.16643 11.6489 -25.6507 1.21998e-06 -3.36007 
427 2 -0.00829656 4.76691 -25.6507 1.228e-06 -3.36007 
428 2 12.0335 3.04641 -25.6507 1.22833e-06 -3.36007 
429 2 9.73985 1.32591 -25.6507 1.22649e-06 -3.36007 
430 2 1.99868 14.0385 -26.3255 7.55402e-07 -3.36005 
431 2 7.15946 7.15649 -26.3255 7.58003e-07 -3.36005 
432 2 4.86578 5.43599 -26.3255 7.57723e-07 -3.36005 
433 2 2.5721 3.71549 -26.3255 7.57468e-07 -3.36005 
434 2 4.29236 15.759 -26.3255 7.58102e-07 -3.36005 
435 2 -0.295002 12.318 -26.3255 7.54533e-07 -3.36005 
436 2 11.7468 10.5975 -26.3255 7.56459e-07 -3.36005 
437 2 9.45314 8.87698 -26.3255 7.57161e-07 -3.36005 
438 2 0.278413 1.995 -26.3255 7.56765e-07 -3.36005 
439 2 12.3202 0.274498 -26.3255 7.57492e-07 -3.36005 
440 2 6.58604 17.4795 -26.3255 7.58545e-07 -3.36005 
441 2 2.28539 11.2666 -27.0004 4.60243e-07 -3.36004 
442 2 7.44617 4.38457 -27.0004 4.6116e-07 -3.36004 
443 2 5.15249 2.66408 -27.0004 4.60961e-07 -3.36004 
444 2 2.8588 0.943579 -27.0004 4.61124e-07 -3.36004 
445 2 4.57907 12.9871 -27.0004 4.58817e-07 -3.36004 
446 2 -0.00829251 9.54607 -27.0004 4.61382e-07 -3.36004 
447 2 12.0335 7.82557 -27.0004 4.61381e-07 -3.36004 
448 2 9.73985 6.10507 -27.0004 4.61115e-07 -3.36004 
449 2 -2.87539 18.1486 -27.0004 4.6121e-07 -3.36004 
450 2 9.16644 16.4281 -27.0004 4.61166e-07 -3.36004 
451 2 6.87275 14.7076 -27.0004 4.60147e-07 -3.36004 
452 2 2.5721 8.49465 -27.6753 2.76821e-07 -3.36002 
453 2 7.73288 1.61266 -27.6753 2.76658e-07 -3.36002 
454 2 1.99868 18.8176 -27.6753 2.77469e-07 -3.36002 
455 2 -0.294998 17.0971 -27.6753 2.78318e-07 -3.36002 
456 2 4.86578 10.2151 -27.6753 2.76666e-07 -3.36002 
457 2 0.278416 6.77415 -27.6753 2.76953e-07 -3.36002 
458 2 12.3202 5.05366 -27.6753 2.77123e-07 -3.36002 
459 2 10.0266 3.33316 -27.6753 2.76633e-07 -3.36002 
460 2 -2.58868 15.3766 -27.6753 2.77393e-07 -3.36002 
461 2 9.45314 13.6561 -27.6753 2.76308e-07 -3.36002 
462 2 7.15946 11.9356 -27.6753 2.76371e-07 -3.36002 
463 2 2.85881 5.72274 -28.3502 1.64507e-07 -3.36001 
464 2 4.57907 17.7662 -28.3502 1.65528e-07 -3.36001 
465 2 2.28539 16.0457 -28.3502 1.65124e-07 -3.36001 
466 2 -0.00828995 14.3252 -28.3502 1.64215e-07 -3.36001 
467 2 5.15249 7.44323 -28.3502 1.64401e-07 -3.36001 
468 2 0.565125 4.00224 -28.3502 1.64854e-07 -3.36001 
469 2 12.607 2.28174 -28.3502 1.65078e-07 -3.36001 
470 2 10.3133 0.561246 -28.3502 1.64963e-07 -3.36001 
471 2 12.0335 12.6047 -28.3502 1.64635e-07 -3.36001 
472 2 9.73985 10.8842 -28.3502 1.65111e-07 -3.36001 
473 2 7.44617 9.16373 -28.3502 1.65077e-07 -3.36001 
474 2 3.14552 2.95083 -29.0252 9.71511e-08 -3.36 
475 2 4.86578 14.9943 -29.0252 9.67258e-08 -3.36 
476 2 2.5721 13.2738 -29.0252 9.6821e-08 -3.36 
477 2 0.278419 11.5533 -29.0252 9.72452e-08 -3.36 
478 2 5.4392 4.67132 -29.0252 9.64624e-08 -3.36 
479 2 0.851835 1.23033 -29.0252 9.75298e-08 -3.36 
480 2 9.45315 18.4353 -29.0252 9.73671e-08 -3.36 
481 2 7.15947 16.7148 -29.0252 9.70506e-08 -3.36 
482 2 12.3202 9.83281 -29.0252 9.70063e-08 -3.36 
483 2 10.0266 8.11232 -29.0252 9.63863e-08 -3.36 
484 2 7.73288 6.39182 -29.0252 9.62319e-08 -3.36 
485 2 3.43223 0.178913 -29.7001 5.68869e-08 -3.36 
486 2 5.15249 12.2224 -29.7001 5.65277e-08 -3.36 
487 2 2.85881 10.5019 -29.7001 5.64644e-08 -3.36 
488 2 0.565128 8.7814 -29.7001 5.61656e-08 -3.36 
489 2 5.72591 1.89941 -29.7001 5.61671e-08 -3.36 
490 2 -2.30197 17.3839 -29.7001 5.72283e-08 -3.36 
491 2 9.73986 15.6634 -29.7001 5.66063e-08 -3.36 
492 2 7.44617 13.9429 -29.7001 5.6353e-08 -3.36 
493 2 12.607 7.0609 -29.7001 5.58458e-08 -3.36 
494 2 10.3133 5.3404 -29.7001 5.54827e-08 -3.36 
495 2 8.01959 3.61991 -29.7001 5.5569e-08 -3.36 
496 2 0.278422 16.3325 -30.3751 3.24193e-08 -3.35999 
497 2 5.4392 9.45048 -30.3751 3.23627e-08 -3.35999 
498 2 3.14552 7.72999 -30.3751 3.22866e-08 -3.35999 
499 2 0.851837 6.00949 -30.3751 3.21383e-08 -3.35999 
500 2 2.5721 18.053 -30.3751 3.24595e-08 -3.35999 
501 2 -2.01526 14.612 -30.3751 3.23134e-08 -3.35999 
502 2 10.0266 12.8915 -30.3751 3.27611e-08 -3.35999 
503 2 7.73288 11.171 -30.3751 3.27266e-08 -3.35999 
504 2 12.8937 4.28899 -30.3751 3.21729e-08 -3.35999 
505 2 10.6 2.56849 -30.3751 3.21276e-08 -3.35999 
506 2 8.3063 0.847995 -30.3751 3.22713e-08 -3.35999 
507 2 0.56513 13.5606 -31.0501 1.84803e-08 -3.35999 
508 2 5.72591 6.67857 -31.0501 1.82632e-08 -3.35999 
509 2 3.43223 4.95807 -31.0501 1.83777e-08 -3.35999 
510 2 1.13855 3.23757 -31.0501 1.84597e-08 -3.35999 
511 2 2.85881 15.2811 -31.0501 1.81805e-08 -3.35999 
512 2 -1.72855 11.8401 -31.0501 1.84189e-08 -3.35999 
513 2 10.3133 10.1196 -31.0501 1.82233e-08 -3.35999 
514 2 8.01959 8.39907 -31.0501 1.82122e-08 -3.35999 
515 2 13.1804 1.51708 -31.0501 1.84685e-08 -3.35999 
516 2 7.44618 18.722 -31.0501 1.83622e-08 -3.35999 
517 2 5.15249 17.0016 -31.0501 1.82597e-08 -3.35999 
518 2 0.851839 10.7886 -31.725 1.02421e-08 -3.35998 
519 2 6.01262 3.90666 -31.725 1.03085e-08 -3.35998 
520 2 3.71894 2.18616 -31.725 1.0375e-08 -3.35998 
521 2 1.42526 0.465662 -31.725 1.04283e-08 -3.35998 
522 2 3.14552 12.5091 -31.725 1.04241e-08 -3.35998 
523 2 -1.44184 9.06815 -31.725 1.01254e-08 -3.35998 
524 2 10.6 7.34765 -31.725 1.02102e-08 -3.35998 
525 2 8.3063 5.62715 -31.725 1.02263e-08 -3.35998 
526 2 10.0266 17.6706 -31.725 1.03768e-08 -3.35998 
527 2 7.73289 15.9501 -31.725 1.03715e-08 -3.35998 
528 2 5.4392 14.2296 -31.725 1.04344e-08 -3.35998 
529 2 1.13855 8.01673 -32.4 5.665e-09 -3.35998 
530 2 6.29933 1.13475 -32.4 5.81102e-09 -3.35998 
531 2 0.565134 18.3397 -32.4 5.64273e-09 -3.35998 
532 2 -1.72855 16.6192 -32.4 5.66539e-09 -3.35998 
533 2 3.43223 9.73723 -32.4 5.73089e-09 -3.35998 
534 2 -1.15513 6.29624 -32.4 5.76809e-09 -3.35998 
535 2 10.8867 4.57574 -32.4 5.84897e-09 -3.35998 
536 2 8.59301 2.85524 -32.4 5.89933e-09 -3.35998 
537 2 10.3133 14.8987 -32.4 5.82945e-09 -3.35998 
538 2 8.01959 13.1782 -32.4 6.09096e-09 -3.35998 
539 2 5.72591 11.4577 -32.4 5.91599e-09 -3.35998 
540 2 1.42526 5.24482 -33.075 3.21276e-09 -3.35998 
541 2 3.14552 17.2883 -33.075 3.04707e-09 -3.35998 
542 2 0.851842 15.5678 -33.075 3.06288e-09 -3.35998 
543 2 -1.44184 13.8473 -33.075 3.26572e-09 -3.35998 
544 2 3.71894 6.96532 -33.075 3.19178e-09 -3.35998 
545 2 13.4671 3.52432 -33.075 3.30778e-09 -3.35998 
546 2 11.1734 1.80383 -33.075 3.31418e-09 -3.35998 
547 2 8.87972 0.0833303 -33.075 3.21335e-09 -3.35998 
548 2 10.6 12.1268 -33.075 3.28628e-09 -3.35998 
549 2 8.3063 10.4063 -33.075 3.18455e-09 -3.35998 
550 2 6.01262 8.68582 -33.075 3.15215e-09 -3.35998 
551 2 1.71197 2.47291 -33.75 1.75521e-09 -3.35998 
552 2 3.43223 14.5164 -33.75 1.71122e-09 -3.35998 
553 2 1.13855 12.7959 -33.75 1.73291e-09 -3.35998 
554 2 -1.15513 11.0754 -33.75 1.70259e-09 -3.35998 
555 2 4.00565 4.19341 -33.75 1.76076e-09 -3.35998 
556 2 13.7538 0.752412 -33.75 1.73709e-09 -3.35998 
557 2 8.0196 17.9574 -33.75 1.71196e-09 -3.35998 
558 2 5.72591 16.2369 -33.75 1.66491e-09 -3.35998 
559 2 10.8867 9.3549 -33.75 1.73149e-09 -3.35998 
560 2 8.59301 7.6344 -33.75 1.7113e-09 -3.35998 
561 2 6.29933 5.9139 -33.75 1.73439e-09 -3.35998 
562 2 -1.44184 18.6265 -34.425 8.60097e-10 -3.35998 
563 2 3.71894 11.7445 -34.425 9.37638e-10 -3.35998 
564 2 1.42526 10.024 -34.425 9.15027e-10 -3.35998 
565 2 -0.868424 8.30348 -34.425 9.33498e-10 -3.35998 
566 2 4.29236 1.4215 -34.425 9.36859e-10 -3.35998 
567 2 10.6 16.906 -34.425 8.35121e-10 -3.35998 
568 2 8.3063 15.1855 -34.425 9.1501e-10 -3.35998 
569 2 6.01262 13.465 -34.425 9.58884e-10 -3.35998 
570 2 11.1734 6.58299 -34.425 9.91378e-10 -3.35998 
571 2 8.87972 4.86249 -34.425 1.00484e-09 -3.35998 
572 2 6.58604 3.14199 -34.425 1.00283e-09 -3.35998 
573 2 -1.15513 15.8546 -35.1 4.63481e-10 -3.35998 
574 2 4.00565 8.97257 -35.1 5.21088e-10 -3.35997 