ITEM: TIMESTEP
0
ITEM: NUMBER OF ATOMS
3302
ITEM: BOX BOUNDS xy xz yz pp pp ff
-3.4501966241222526e+00 1.4328689098103521e+01 -3.4404198450464061e+00
-1.4278133708528101e-02 1.8915242394824912e+01 0.0000000000000000e+00
-1.2150000000000000e+02 1.2150000000000000e+02 0.0000000000000000e+00
ITEM: ATOMS id type x y z c_csym c_eng 
1 2 11.5176 8.50323 0.113736 3.4505 -3.35554 
2 2 2.26559 1.68923 0.102535 4.92142 -3.35798 
3 2 0.0241595 -0.00173746 0.103606 6.56148 -3.38463 
4 2 8.63567 17.2408 0.0695344 7.08143 -3.40004 
5 2 -0.526106 10.2236 0.0909305 6.07297 -3.35511 
6 2 9.21542 6.79508 0.11534 3.63011 -3.35452 
7 2 6.87421 5.09447 0.0986003 5.43476 -3.35384 
8 2 4.52649 3.42508 0.0596231 5.52625 -3.37775 
9 2 6.35781 15.4469 0.105963 4.21292 -3.35396 
10 2 4.06139 13.6759 0.115722 3.38897 -3.35821 
11 2 1.76647 11.9356 0.0953081 3.56759 -3.36015 
12 2 11.5438 6.08802 -1.22673 2.82928 -3.26805 
13 2 -1.00108 18.1366 -1.24654 3.47485 -3.21431 
14 2 10.971 16.4262 -1.44603 8.20945 -3.3562 
15 2 8.65527 14.6482 -1.22788 3.27516 -3.21786 
16 2 -0.511932 7.8027 -1.2464 3.11386 -3.26002 
17 2 9.24092 4.39631 -1.22579 3.01514 -3.27157 
18 2 6.95782 2.68421 -1.21426 2.70591 -3.2694 
19 2 4.66451 0.973983 -1.22217 2.82951 -3.27307 
20 2 6.35166 12.9823 -1.23752 3.27397 -3.24819 
21 2 4.06655 11.244 -1.24946 3.38669 -3.2458 
22 2 1.77933 9.50197 -1.24829 3.21604 -3.25509 
23 2 11.8528 3.32569 -1.81731 0.532034 -3.29478 
24 2 -0.654284 15.3541 -1.74704 3.22364 -3.2659 
25 2 11.2283 13.5251 -1.74957 3.67722 -3.26148 
26 2 8.93938 11.859 -1.79592 3.516 -3.29029 
27 2 -0.212668 5.02937 -1.84078 0.656012 -3.2624 
28 2 9.64206 1.62169 -1.7648 0.90891 -3.32459 
29 2 3.86821 18.8447 -1.77482 1.90319 -3.27288 
30 2 1.59946 17.0924 -1.78481 2.58551 -3.29249 
31 2 6.64069 10.1295 -1.78111 2.76026 -3.29259 
32 2 4.33723 8.36541 -1.77874 1.56837 -3.30455 
33 2 2.06099 6.63201 -1.80139 0.776877 -3.32227 
34 2 12.1456 0.429808 -2.29353 2.07677 -3.26265 
35 2 -0.426494 12.4731 -1.96105 5.85303 -3.39113 
36 2 11.6367 10.7179 -1.94497 5.45977 -3.39485 
37 2 9.35479 9.03109 -1.97058 5.40813 -3.39437 
38 2 0.222228 2.33825 -2.01637 6.54324 -3.28541 
39 2 6.2675 17.6285 -1.99618 6.22801 -3.30411 
40 2 4.13182 15.8436 -1.9975 5.31308 -3.38909 
41 2 1.8983 14.1456 -1.95384 5.36172 -3.39107 
42 2 7.09395 7.31987 -2.00268 5.25822 -3.39171 
43 2 4.83509 5.5897 -2.07139 2.53656 -3.38008 
44 2 2.59435 3.85852 -2.30227 1.75831 -3.31863 
45 2 8.56357 16.7241 -2.79952 8.03475 -3.04363 
46 2 -0.21513 9.79938 -3.05801 1.29565 -3.31728 
47 2 11.8345 8.07492 -3.05415 1.16547 -3.31197 
48 2 9.55735 6.36413 -3.05734 1.08313 -3.31352 
49 2 -3.01355 18.8281 -2.77428 8.87263 -3.03508 
50 2 6.62336 14.905 -3.08217 1.39751 -3.2881 
51 2 4.38272 13.2132 -3.07205 1.25229 -3.29647 
52 2 2.08039 11.5119 -3.06033 1.3316 -3.31323 
53 2 7.28437 4.6355 -3.06917 0.971836 -3.30924 
54 2 5.03557 2.88726 -3.09792 0.723307 -3.29057 
55 2 2.76347 1.1848 -3.1175 1.23603 -3.29039 
56 2 9.3548 13.8281 -3.74879 1.20201 -3.32381 
57 2 0.155906 6.93201 -3.76863 0.0719558 -3.32577 
58 2 12.1926 5.2365 -3.77011 0.0767524 -3.31505 
59 2 9.91484 3.50627 -3.75872 0.0994079 -3.33094 
60 2 -2.34682 15.055 -3.75533 10.8235 -3.02488 
61 2 7.03552 12.0487 -3.74298 0.0974728 -3.32464 
62 2 4.73701 10.3286 -3.74172 0.0886919 -3.32763 
63 2 2.44516 8.62459 -3.74846 0.07518 -3.32593 
64 2 7.64194 1.78316 -3.74186 0.076379 -3.32009 
65 2 5.3708 0.0327641 -3.74446 0.0967448 -3.33369 
66 2 -0.416988 17.2203 -3.75855 1.22455 -3.32353 
67 2 9.68321 10.9203 -4.24019 0.50801 -3.36197 
68 2 0.521439 4.09455 -4.32431 0.352774 -3.37501 
69 2 12.594 2.4545 -4.28467 0.658773 -3.33839 
70 2 10.151 0.633203 -4.26613 0.616721 -3.3263 
71 2 12.0153 12.4904 -4.25237 1.14157 -3.2989 
72 2 7.40133 9.21468 -4.24368 0.44065 -3.35164 
73 2 5.11416 7.50918 -4.25408 0.370795 -3.35757 
74 2 2.81806 5.82069 -4.30424 0.224844 -3.35381 
75 2 4.50971 17.8146 -4.25996 0.492024 -3.36534 
76 2 2.25195 16.1013 -4.2422 0.483547 -3.36319 
77 2 0.100483 14.2986 -4.25543 1.13578 -3.29808 
78 2 9.92517 8.2362 -4.99725 0.207929 -3.3196 
79 2 0.770526 1.3228 -5.04512 1.05852 -3.32325 
80 2 9.15653 18.8244 -5.05561 7.29881 -3.15202 
81 2 7.07443 16.8245 -5.03928 0.945455 -3.3171 
82 2 12.2244 9.91693 -5.01529 0.303731 -3.29053 
83 2 7.64031 6.52618 -4.99764 0.186701 -3.31643 
84 2 5.35711 4.81027 -5.00468 0.143499 -3.32431 
85 2 3.07181 3.08933 -5.04305 0.0857482 -3.3228 
86 2 4.75026 15.1181 -5.01546 0.249851 -3.32128 
87 2 2.50716 13.3758 -5.0216 0.325107 -3.2929 
88 2 0.202466 11.6396 -5.01871 0.347472 -3.3125 
89 2 10.2329 5.44346 -5.68849 0.0299323 -3.34509 
90 2 -2.05937 17.5161 -5.90386 7.5854 -3.13348 
91 2 9.54607 15.4794 -5.89179 7.51296 -3.14335 
92 2 7.30825 13.9838 -5.67503 0.212075 -3.32623 
93 2 12.5294 7.1677 -5.68861 0.02291 -3.34118 
94 2 7.95368 3.72406 -5.6842 0.0237527 -3.34369 
95 2 5.67493 2.00544 -5.68744 0.0163659 -3.34338 
96 2 3.44074 0.314983 -5.68822 0.214839 -3.3268 
97 2 5.06894 12.2962 -5.6773 0.0280478 -3.33669 
98 2 2.78884 10.5838 -5.67757 0.0306939 -3.34744 
99 2 0.493752 8.87257 -5.68415 0.0301101 -3.34449 
100 2 10.58 2.59636 -6.29618 0.204266 -3.37365 
101 2 -2.02831 14.6238 -6.35763 0.464521 -3.33928 
102 2 10.0127 12.8489 -6.30094 0.303153 -3.3342 
103 2 7.68904 11.2004 -6.29379 0.0622195 -3.36287 
104 2 12.8494 4.37501 -6.32798 0.0422388 -3.35218 
105 2 8.24426 0.904914 -6.30873 0.0548462 -3.35694 
106 2 2.54721 18.1017 -6.30164 0.0602407 -3.3629 
107 2 0.323642 16.3263 -6.3095 0.31247 -3.33052 
108 2 5.40279 9.49791 -6.29205 0.0406864 -3.35735 
109 2 3.11232 7.79014 -6.30192 0.0327186 -3.35126 
110 2 0.813289 6.07619 -6.31724 0.0264859 -3.35645 
111 2 7.34935 18.7837 -7.02665 0.235707 -3.32031 
112 2 -1.7627 11.8772 -6.98621 0.0529308 -3.34303 
113 2 10.2638 10.1631 -6.97374 0.0229369 -3.32134 
114 2 7.96949 8.46011 -6.96609 0.0159827 -3.33432 
115 2 13.151 1.62373 -7.02897 0.224245 -3.31986 
116 2 5.08676 17.0648 -6.97307 0.0184129 -3.33598 
117 2 2.82079 15.3347 -6.98179 0.0274583 -3.32027 
118 2 0.533119 13.5957 -6.98898 0.0552868 -3.34369 
119 2 5.68077 6.74701 -6.96565 0.01281 -3.33641 
120 2 3.39342 5.03311 -6.97843 0.00689121 -3.33987 
121 2 1.09954 3.31976 -6.98118 0.0122206 -3.34129 
122 2 7.63729 16.0128 -7.68313 0.205009 -3.33232 
123 2 -1.48227 9.11801 -7.64054 0.00426243 -3.35811 
124 2 10.5558 7.40317 -7.63584 0.00550956 -3.35445 
125 2 8.26394 5.68573 -7.63464 0.004853 -3.35672 
126 2 10.008 17.6992 -7.53589 1.17472 -3.3854 
127 2 5.37983 14.2732 -7.64662 0.0160237 -3.35905 
128 2 3.10669 12.5506 -7.64024 0.00415123 -3.35908 
129 2 0.81696 10.8316 -7.63923 0.00343588 -3.35633 
130 2 5.97916 3.96786 -7.63901 0.00492832 -3.35672 
131 2 3.6957 2.25612 -7.6596 0.0176361 -3.3571 
132 2 1.39205 0.573257 -7.68926 0.218423 -3.33253 
133 2 8.00904 13.2287 -8.26667 0.0958587 -3.36571 
134 2 13.1537 6.34004 -8.29683 0.00422707 -3.35779 
135 2 10.8549 4.61263 -8.2911 0.0098323 -3.35967 
136 2 8.56795 2.89312 -8.28724 0.00981153 -3.36161 
137 2 10.3159 14.9057 -8.3662 0.216406 -3.32903 
138 2 5.70411 11.4906 -8.28518 0.00799681 -3.36063 
139 2 3.40939 9.7702 -8.28589 0.00398229 -3.36046 
140 2 1.11399 8.05401 -8.2906 0.00370843 -3.36071 
141 2 6.26827 1.16689 -8.29309 0.00916838 -3.35703 
142 2 0.51674 18.3636 -8.27315 0.102064 -3.36544 
143 2 -1.7375 16.6166 -8.37282 0.23842 -3.32685 
144 2 8.28087 10.4377 -8.94226 0.00306018 -3.35075 
145 2 13.4475 3.569 -8.96444 0.00506263 -3.34319 
146 2 11.1438 1.8427 -8.96321 0.0128621 -3.35214 
147 2 8.84293 0.114375 -8.96057 0.00552432 -3.34128 
148 2 10.5818 12.1369 -8.95923 0.0140047 -3.35365 
149 2 5.99009 8.71663 -8.94074 0.0014478 -3.34998 
150 2 3.69836 6.99962 -8.94442 0.00151608 -3.35156 
151 2 1.40476 5.28391 -8.95165 0.00138466 -3.35406 
152 2 3.11504 17.3219 -8.94946 0.00361032 -3.35262 
153 2 0.844414 15.5863 -8.96439 0.0157314 -3.35307 
154 2 -1.44893 13.8524 -8.96684 0.0107086 -3.34525 
155 2 8.57285 7.66055 -9.60819 0.00161084 -3.35845 
156 2 13.73 0.764028 -9.61967 0.0406426 -3.3633 
157 2 8.01395 17.9861 -9.61781 0.0398124 -3.36376 
158 2 5.69338 16.2649 -9.62486 0.00667327 -3.35003 
159 2 10.8678 9.37463 -9.61228 0.00212104 -3.35715 
160 2 6.28148 5.94217 -9.60847 0.00177801 -3.35725 
161 2 3.99064 4.22568 -9.61592 0.00220438 -3.35633 
162 2 1.69444 2.5123 -9.62842 0.00621121 -3.3481 
163 2 3.41391 14.5368 -9.61787 0.00270639 -3.35703 
164 2 1.12595 12.812 -9.61747 0.00184212 -3.35747 
165 2 -1.17134 11.0909 -9.61642 0.00186861 -3.35728 
166 2 8.86498 4.88215 -10.2685 0.00160466 -3.35687 
167 2 10.5789 16.9357 -10.274 0.0347335 -3.36679 
168 2 8.28685 15.2012 -10.2867 0.0162543 -3.35996 
169 2 6.00139 13.4787 -10.2683 0.00561365 -3.35889 
170 2 11.1585 6.60236 -10.27 0.00161894 -3.35913 
171 2 6.573 3.16128 -10.2696 0.00181503 -3.35807 
172 2 4.28152 1.43676 -10.2733 0.00599964 -3.35778 
173 2 -1.4524 18.6518 -10.2899 0.0169816 -3.35975 
174 2 3.70763 11.7592 -10.2682 0.001539 -3.35714 
175 2 1.4134 10.0396 -10.2688 0.00132149 -3.35857 
176 2 -0.882901 8.32145 -10.2705 0.00156403 -3.35777 
177 2 9.15302 2.10635 -10.9328 0.00112495 -3.35562 
178 2 10.8814 14.1407 -10.9505 0.00613509 -3.34603 
179 2 8.58037 12.4248 -10.926 0.00372186 -3.35671 
180 2 6.28902 10.7051 -10.9257 0.000974921 -3.3563 
181 2 11.4484 3.82866 -10.934 0.00116764 -3.35576 
182 2 6.86073 0.383198 -10.9319 0.00132373 -3.35385 
183 2 1.12957 17.5922 -10.93 0.00389174 -3.35681 
184 2 -1.16094 15.8624 -10.9532 0.00704148 -3.34547 
185 2 3.99621 8.98615 -10.9259 0.000914505 -3.35678 
186 2 1.70216 7.26773 -10.9288 0.000963338 -3.35697 
187 2 -0.593483 5.54905 -10.9329 0.00131005 -3.35466 
188 2 6.00378 18.2588 -11.5976 0.00163848 -3.36231 
189 2 11.1665 11.3685 -11.5961 0.000900154 -3.35794 
190 2 8.87076 9.65204 -11.5899 0.000855378 -3.35739 
191 2 6.57761 7.93277 -11.5891 0.000733627 -3.35822 
192 2 11.7374 1.05087 -11.598 0.0011935 -3.35432 
193 2 3.70858 16.5364 -11.5953 0.00125959 -3.35531 
194 2 1.42001 14.812 -11.5985 0.00095621 -3.35758 
195 2 -0.873723 13.0875 -11.5988 0.00104006 -3.3589 
196 2 4.28468 6.21374 -11.591 0.000826331 -3.35786 
197 2 1.99037 4.49489 -11.5956 0.00115152 -3.35598 
198 2 -0.30633 2.77158 -11.599 0.00177211 -3.36202 
199 2 6.29083 15.4802 -12.2602 0.00132916 -3.3577 
200 2 11.4548 8.59739 -12.2555 0.000654745 -3.35828 
201 2 9.16004 6.87815 -12.2541 0.000650363 -3.35819 
202 2 6.86674 5.15803 -12.2542 0.000653152 -3.35824 
203 2 8.58606 17.2029 -12.2614 0.000948378 -3.35421 
204 2 4.0004 13.7582 -12.2564 0.000726054 -3.35884 
205 2 1.70742 12.0369 -12.2563 0.000643606 -3.35865 
206 2 -0.587721 10.3165 -12.2562 0.000667649 -3.35863 
207 2 4.5738 3.43758 -12.2566 0.000795006 -3.35936 
208 2 2.28002 1.71813 -12.2619 0.00136332 -3.3578 
209 2 14.3221 -0.00446465 -12.2623 0.00101085 -3.35435 
210 2 6.58173 12.705 -12.9172 0.000523772 -3.35748 
211 2 11.7429 5.82492 -12.9188 0.000610019 -3.35853 
212 2 9.44823 4.10421 -12.9186 0.000581215 -3.35836 
213 2 7.15464 2.38294 -12.9185 0.000587668 -3.35827 
214 2 8.87472 14.4253 -12.9234 0.00116587 -3.35811 
215 2 4.28849 10.9847 -12.9163 0.000528169 -3.35878 
216 2 1.99452 9.26469 -12.9168 0.000556855 -3.35899 
217 2 -0.300341 7.54492 -12.9179 0.000626522 -3.35862 
218 2 4.86178 0.661528 -12.9195 0.000607459 -3.35687 
219 2 -0.871755 17.8702 -12.925 0.00122234 -3.35811 
220 2 11.1691 16.1496 -12.9253 0.00124223 -3.36328 
221 2 6.86939 9.93257 -13.5806 0.000416572 -3.35898 
222 2 12.0303 3.05122 -13.5849 0.000546567 -3.35865 
223 2 9.7359 1.32998 -13.5845 0.000526918 -3.35867 
224 2 4.00162 18.5379 -13.584 0.000499207 -3.35937 
225 2 9.16302 11.6524 -13.5822 0.000466377 -3.35957 
226 2 4.57572 8.21254 -13.5806 0.000437225 -3.35897 
227 2 2.28172 6.49254 -13.582 0.000516916 -3.35878 
228 2 -0.0130723 4.77236 -13.5842 0.000539789 -3.35941 
229 2 1.70901 16.8165 -13.5841 0.000539077 -3.35929 
230 2 -0.58468 15.0939 -13.5875 0.000920744 -3.35642 
231 2 11.4586 13.3725 -13.5867 0.000853761 -3.3566 
232 2 7.15692 7.15994 -14.2468 0.000364375 -3.35939 
233 2 12.318 0.27678 -14.2508 0.000494816 -3.35874 
234 2 6.58313 17.4849 -14.2505 0.000469074 -3.35909 
235 2 4.28941 15.7633 -14.2493 0.000453473 -3.35911 
236 2 9.4509 8.88012 -14.2472 0.00037206 -3.35932 
237 2 4.86322 5.43962 -14.2476 0.0003882 -3.3595 
238 2 2.56918 3.71924 -14.2494 0.000481391 -3.35922 
239 2 0.274314 1.99816 -14.251 0.000499649 -3.3591 
240 2 1.99646 14.0418 -14.2493 0.00043821 -3.3593 
241 2 -0.297739 12.3205 -14.2492 0.000439453 -3.35944 
242 2 11.7457 10.6 -14.2486 0.000428168 -3.35922 
243 2 7.44434 4.38662 -14.9138 0.000344398 -3.35937 
244 2 9.16498 16.4319 -14.9168 0.000429979 -3.35925 
245 2 6.87079 14.7103 -14.9154 0.000423315 -3.35907 
246 2 4.57737 12.9894 -14.9138 0.000342116 -3.35927 
247 2 9.73838 6.10735 -14.9138 0.000344571 -3.35939 
248 2 5.15065 2.66574 -14.9144 0.00036873 -3.35928 
249 2 2.85675 0.945003 -14.9162 0.000459976 -3.35909 
250 2 -2.87857 18.1534 -14.9172 0.000444425 -3.35928 
251 2 2.28353 11.2687 -14.9136 0.000346844 -3.35951 
252 2 -0.010849 9.54815 -14.9137 0.000357938 -3.35955 
253 2 12.0329 7.82781 -14.9139 0.00035705 -3.35942 
254 2 7.73142 1.61329 -15.5812 0.000318959 -3.35964 
255 2 9.45249 13.658 -15.5821 0.000377441 -3.35951 
256 2 7.15832 11.9374 -15.5804 0.000280519 -3.35952 
257 2 4.86442 10.2169 -15.5798 0.000276182 -3.35973 
258 2 10.0255 3.33434 -15.5813 0.000323625 -3.35961 
259 2 1.99722 18.8217 -15.5815 0.000317165 -3.35948 
260 2 -0.296618 17.1006 -15.5827 0.000405013 -3.35952 
261 2 -2.59132 15.3793 -15.5832 0.000400867 -3.36018 
262 2 2.57037 8.49637 -15.58 0.000290904 -3.35976 
263 2 0.276032 6.77597 -15.5807 0.000309249 -3.35976 
264 2 12.3199 5.05525 -15.5813 0.000326149 -3.35969 
265 2 4.57797 17.7695 -16.2493 0.000286365 -3.35985 
266 2 9.73957 10.8855 -16.2485 0.00024998 -3.35998 
267 2 7.44537 9.16505 -16.248 0.000237746 -3.35986 
268 2 5.15133 7.4445 -16.248 0.000240706 -3.3599 
269 2 10.3125 0.561131 -16.2496 0.000292782 -3.35981 
270 2 2.2842 16.0484 -16.2492 0.00027428 -3.35993 
271 2 -0.00987205 14.3272 -16.2494 0.0003426 -3.35956 
272 2 12.0341 12.6062 -16.2492 0.000331664 -3.35958 
273 2 2.85723 5.72391 -16.2485 0.000265774 -3.35988 
274 2 0.562876 4.00318 -16.2493 0.00029568 -3.3599 
275 2 12.6068 2.28219 -16.2497 0.000299437 -3.35982 
276 2 4.86501 14.9963 -16.9175 0.00023971 -3.35993 
277 2 10.0266 8.11314 -16.9169 0.000217227 -3.36 
278 2 7.73234 6.39246 -16.9168 0.00021433 -3.35999 
279 2 5.43828 4.67171 -16.917 0.000222369 -3.35999 
280 2 7.15905 16.7173 -16.918 0.000260736 -3.35994 
281 2 2.57107 13.2753 -16.9172 0.0002371 -3.35995 
282 2 0.276871 11.5545 -16.9171 0.000239636 -3.36001 
283 2 12.321 9.83379 -16.917 0.000233767 -3.35998 
284 2 3.1442 2.95093 -16.9176 0.000249355 -3.35995 
285 2 0.849843 1.23001 -16.9182 0.000271343 -3.35997 
286 2 9.45338 18.4385 -16.9183 0.000265696 -3.35996 
287 2 5.15197 12.2235 -17.586 0.00018638 -3.36001 
288 2 10.3134 5.34056 -17.5863 0.000194649 -3.36006 
289 2 8.01922 3.61969 -17.5863 0.00019396 -3.36005 
290 2 5.72515 1.89878 -17.5864 0.000198557 -3.36002 
291 2 7.44607 13.9443 -17.5866 0.000208629 -3.35999 
292 2 2.85786 10.5028 -17.5859 0.000186339 -3.36008 
293 2 0.563636 8.78209 -17.586 0.000190472 -3.36008 
294 2 12.6078 7.06136 -17.5862 0.000194938 -3.36008 
295 2 3.43106 0.177852 -17.5869 0.000220844 -3.36 
296 2 -2.3037 17.3864 -17.5872 0.000236588 -3.3601 
297 2 9.74033 15.6653 -17.5871 0.000231117 -3.36009 
298 2 5.43876 9.45109 -18.2558 0.000150743 -3.36015 
299 2 10.6002 2.56785 -18.2564 0.000172482 -3.36015 
300 2 8.306 0.846896 -18.2564 0.000170065 -3.36016 
301 2 2.57149 18.0555 -18.2564 0.000170322 -3.36014 
302 2 7.73292 11.1718 -18.256 0.000155421 -3.36014 
303 2 3.14459 7.73035 -18.2559 0.000154922 -3.36016 
304 2 0.850362 6.0096 -18.2561 0.00016496 -3.36018 
305 2 12.8945 4.28876 -18.2564 0.000172261 -3.36018 
306 2 0.277363 16.3345 -18.2565 0.000185188 -3.36012 
307 2 -2.01691 14.6135 -18.2566 0.00018888 -3.36016 
308 2 10.0272 12.8926 -18.2563 0.000177325 -3.36012 
309 2 5.72552 6.67857 -18.9265 0.000128916 -3.36022 
310 2 7.44655 18.7246 -18.927 0.000148463 -3.36022 
311 2 5.15235 17.0036 -18.9269 0.000143842 -3.36022 
312 2 2.85823 15.2827 -18.9268 0.000140402 -3.36022 
313 2 8.0197 8.39936 -18.9264 0.000128283 -3.36021 
314 2 3.43135 4.95777 -18.9266 0.000135747 -3.36022 
315 2 1.13711 3.23692 -18.9269 0.000146047 -3.36023 
316 2 13.1813 1.51601 -18.9271 0.000150322 -3.36022 
317 2 0.564059 13.5618 -18.9267 0.000146024 -3.36021 
318 2 -1.73021 11.8409 -18.9266 0.000143821 -3.36021 
319 2 10.314 10.1201 -18.9266 0.000133228 -3.36022 
320 2 6.01227 3.90594 -19.5977 0.000110785 -3.36023 
321 2 7.73333 15.9518 -19.5979 0.00012154 -3.36024 
322 2 5.43913 14.2309 -19.5977 0.00011419 -3.36022 
323 2 3.14496 12.5101 -19.5976 0.000110944 -3.36022 
324 2 8.30646 5.62679 -19.5976 0.000109039 -3.36024 
325 2 3.7181 2.18507 -19.5978 0.000117199 -3.36023 
326 2 1.42386 0.464172 -19.598 0.000124473 -3.36025 
327 2 10.0276 17.6728 -19.598 0.000125687 -3.36027 
328 2 0.850755 10.7893 -19.5975 0.000110975 -3.36024 
329 2 -1.4435 9.06845 -19.5976 0.00011102 -3.36024 
330 2 10.6007 7.34763 -19.5976 0.000109608 -3.36024 
331 2 6.29898 1.13329 -20.2693 9.24178e-05 -3.36025 
332 2 8.02009 13.1792 -20.2692 9.28369e-05 -3.36024 
333 2 5.72587 11.4584 -20.2691 8.76463e-05 -3.36024 
334 2 3.43167 9.73758 -20.2691 8.68235e-05 -3.36025 
335 2 8.59317 2.85419 -20.2693 9.17907e-05 -3.36026 
336 2 0.564379 18.3419 -20.2693 9.64288e-05 -3.36025 
337 2 -1.72986 16.621 -20.2694 0.000100278 -3.36027 
338 2 10.3143 14.9001 -20.2694 9.89253e-05 -3.36027 
339 2 1.13745 8.01676 -20.2691 8.85405e-05 -3.36026 
340 2 13.1817 6.29593 -20.2692 9.09392e-05 -3.36027 
341 2 10.8874 4.57507 -20.2692 9.19651e-05 -3.36026 
342 2 3.14525 17.2902 -20.9413 7.46075e-05 -3.36027 
343 2 8.30679 10.4067 -20.9412 7.06806e-05 -3.36026 
344 2 6.01257 8.6859 -20.9411 6.93401e-05 -3.36026 
345 2 3.71836 6.96507 -20.9411 7.02802e-05 -3.36026 
346 2 8.87987 0.0815693 -20.9413 7.51496e-05 -3.36027 
347 2 0.851054 15.5693 -20.9413 7.57247e-05 -3.36026 
348 2 -1.44317 13.8484 -20.9413 7.62342e-05 -3.36026 
349 2 10.601 12.1276 -20.9412 7.39372e-05 -3.36026 
350 2 1.42414 5.24422 -20.9412 7.29387e-05 -3.36027 
351 2 13.4684 3.52336 -20.9413 7.54466e-05 -3.36028 
352 2 11.1741 1.80247 -20.9413 7.59769e-05 -3.36028 
353 2 3.43194 14.5176 -21.6136 5.79591e-05 -3.36026 
354 2 8.59348 7.63422 -21.6136 5.58971e-05 -3.36026 
355 2 6.29926 5.91336 -21.6136 5.60419e-05 -3.36026 
356 2 4.00505 4.19251 -21.6136 5.74526e-05 -3.36026 
357 2 5.72615 16.2385 -21.6137 5.92256e-05 -3.36027 
358 2 1.13773 12.7968 -21.6136 5.75696e-05 -3.36026 
359 2 -1.1565 11.0759 -21.6136 5.72567e-05 -3.36026 
360 2 10.8877 9.35506 -21.6136 5.66277e-05 -3.36026 
361 2 1.71083 2.47164 -21.6137 5.97802e-05 -3.36027 
362 2 13.755 0.750752 -21.6138 6.12399e-05 -3.36028 
363 2 8.02038 17.9594 -21.6137 6.08426e-05 -3.36027 
364 2 3.71862 11.7451 -22.2864 4.4023e-05 -3.36024 
365 2 8.88017 4.86167 -22.2864 4.47421e-05 -3.36025 
366 2 6.58595 3.1408 -22.2864 4.49961e-05 -3.36025 
367 2 4.29174 1.41993 -22.2864 4.59747e-05 -3.36025 
368 2 6.01284 13.4659 -22.2864 4.50111e-05 -3.36024 
369 2 1.4244 10.0242 -22.2864 4.39431e-05 -3.36024 
370 2 -0.869829 8.30339 -22.2864 4.43363e-05 -3.36025 
371 2 11.1744 6.58254 -22.2864 4.46639e-05 -3.36025 
372 2 -1.44291 18.6286 -22.2865 4.73021e-05 -3.36026 
373 2 10.6013 16.9077 -22.2865 4.76538e-05 -3.36026 
374 2 8.30707 15.1868 -22.2865 4.6615e-05 -3.36025 
375 2 4.0053 8.97258 -22.9595 3.37125e-05 -3.36023 
376 2 9.16684 2.08912 -22.9595 3.52311e-05 -3.36024 
377 2 6.87262 0.368246 -22.9595 3.52301e-05 -3.36024 
378 2 1.13798 17.5769 -22.9595 3.55589e-05 -3.36024 
379 2 6.29952 10.6934 -22.9595 3.39303e-05 -3.36023 
380 2 1.71107 7.25173 -22.9595 3.40994e-05 -3.36023 
381 2 -0.583159 5.53087 -22.9595 3.47796e-05 -3.36024 
382 2 11.4611 3.81 -22.9595 3.52051e-05 -3.36024 
383 2 -1.15624 15.856 -22.9595 3.5951e-05 -3.36024 
384 2 10.888 14.1352 -22.9595 3.5665e-05 -3.36024 
385 2 8.59375 12.4143 -22.9595 3.47358e-05 -3.36023 
386 2 4.29197 6.20006 -23.6329 2.60549e-05 -3.36021 
387 2 6.01309 18.2461 -23.6329 2.70505e-05 -3.36022 
388 2 3.71887 16.5252 -23.6329 2.67786e-05 -3.36022 
389 2 1.42464 14.8044 -23.6329 2.66496e-05 -3.36022 
390 2 6.58619 7.92092 -23.6329 2.58846e-05 -3.36021 
391 2 1.99774 4.4792 -23.6329 2.65396e-05 -3.36022 
392 2 -0.29649 2.75833 -23.6329 2.70821e-05 -3.36022 
393 2 11.7477 1.03745 -23.6329 2.7254e-05 -3.36022 
394 2 -0.869582 13.0835 -23.6329 2.65953e-05 -3.36021 
395 2 11.1747 11.3626 -23.6329 2.63638e-05 -3.36021 
396 2 8.88042 9.64178 -23.6329 2.60764e-05 -3.36021 
397 2 4.57863 3.42753 -24.3065 2.00603e-05 -3.36019 
398 2 6.29976 15.4736 -24.3065 2.02205e-05 -3.3602 
399 2 4.00553 13.7527 -24.3065 1.99202e-05 -3.36019 
400 2 1.71131 12.0318 -24.3065 1.97587e-05 -3.36019 
401 2 6.87286 5.14839 -24.3065 1.98654e-05 -3.36019 
402 2 2.28441 1.70666 -24.3066 2.04e-05 -3.3602 
403 2 14.3286 -0.0142116 -24.3066 2.06385e-05 -3.3602 
404 2 8.59399 17.1944 -24.3066 2.05583e-05 -3.3602 
405 2 -0.582922 10.311 -24.3065 1.97643e-05 -3.36019 
406 2 11.4613 8.59012 -24.3065 1.98412e-05 -3.36019 
407 2 9.16708 6.86926 -24.3065 1.98293e-05 -3.36019 
408 2 4.86529 0.654999 -24.9804 1.51287e-05 -3.36017 
409 2 6.58642 12.7011 -24.9804 1.4849e-05 -3.36017 
410 2 4.2922 10.9802 -24.9804 1.469e-05 -3.36017 
411 2 1.99797 9.25933 -24.9804 1.46882e-05 -3.36017 
412 2 7.15952 2.37587 -24.9804 1.50388e-05 -3.36017 
413 2 -0.869352 17.8637 -24.9804 1.5247e-05 -3.36017 
414 2 11.1749 16.1428 -24.9804 1.52516e-05 -3.36018 
415 2 8.88065 14.4219 -24.9804 1.50836e-05 -3.36017 
416 2 -0.296261 7.53847 -24.9804 1.48173e-05 -3.36017 
417 2 11.748 5.8176 -24.9804 1.49478e-05 -3.36017 
418 2 9.45375 4.09674 -24.9804 1.50001e-05 -3.36017 
419 2 1.71153 16.812 -25.6544 1.11444e-05 -3.36015 
420 2 6.87308 9.92854 -25.6544 1.09013e-05 -3.36015 
421 2 4.57886 8.20768 -25.6544 1.08791e-05 -3.36015 
422 2 2.28463 6.48681 -25.6544 1.0952e-05 -3.36015 
423 2 4.00576 18.5329 -25.6544 1.11574e-05 -3.36015 
424 2 -0.582697 15.0911 -25.6544 1.1127e-05 -3.36015 
425 2 11.4615 13.3703 -25.6544 1.10737e-05 -3.36015 
426 2 9.16731 11.6494 -25.6544 1.09848e-05 -3.36015 
427 2 -0.009602 4.76595 -25.6544 1.10801e-05 -3.36015 
428 2 12.0346 3.04508 -25.6544 1.11735e-05 -3.36015 
429 2 9.7404 1.32421 -25.6544 1.11821e-05 -3.36015 
430 2 1.99819 14.0395 -26.3286 8.06772e-06 -3.36013 
431 2 7.15974 7.15603 -26.3286 8.00998e-06 -3.36013 
432 2 4.86552 5.43516 -26.3286 8.04001e-06 -3.36013 
433 2 2.57129 3.7143 -26.3286 8.11277e-06 -3.36013 
434 2 4.29242 15.7603 -26.3286 8.11288e-06 -3.36013 
435 2 -0.296041 12.3186 -26.3286 8.05026e-06 -3.36013 
436 2 11.7482 10.5978 -26.3286 8.03955e-06 -3.36013 
437 2 9.45397 8.87689 -26.3286 8.02121e-06 -3.36013 
438 2 0.277058 1.99343 -26.3286 8.19784e-06 -3.36013 
439 2 12.3213 0.272564 -26.3286 8.21722e-06 -3.36013 
440 2 6.58664 17.4812 -26.3286 8.17394e-06 -3.36013 
441 2 2.28484 11.267 -27.0029 5.78671e-06 -3.36011 
442 2 7.4464 4.38351 -27.0029 5.8299e-06 -3.36011 
443 2 5.15217 2.66265 -27.0029 5.85833e-06 -3.36011 
444 2 2.85794 0.941782 -27.0029 5.89759e-06 -3.36011 
445 2 4.57907 12.9878 -27.0029 5.80731e-06 -3.36011 
446 2 -0.0093858 9.54611 -27.0029 5.79935e-06 -3.36011 
447 2 12.0349 7.82525 -27.0029 5.8226e-06 -3.36011 
448 2 9.74062 6.10438 -27.0029 5.82159e-06 -3.36011 
449 2 -2.87671 18.1504 -27.0029 5.92085e-06 -3.36011 
450 2 9.16753 16.4296 -27.0029 5.90249e-06 -3.36011 
451 2 6.8733 14.7087 -27.0029 5.85455e-06 -3.36011 
452 2 2.5715 8.49446 -27.6774 4.17035e-06 -3.36009 
453 2 7.73305 1.611 -27.6774 4.20874e-06 -3.36009 
454 2 1.9984 18.8197 -27.6774 4.21936e-06 -3.36009 
455 2 -0.295825 17.0988 -27.6774 4.2255e-06 -3.36009 
456 2 4.86573 10.2153 -27.6774 4.16302e-06 -3.36009 
457 2 0.277271 6.7736 -27.6774 4.1956e-06 -3.36009 
458 2 12.3215 5.05273 -27.6774 4.20645e-06 -3.36009 
459 2 10.0273 3.33187 -27.6774 4.20379e-06 -3.36009 
460 2 -2.59005 15.3779 -27.6774 4.22097e-06 -3.36009 
461 2 9.45418 13.6571 -27.6774 4.20102e-06 -3.36009 
462 2 7.15995 11.9362 -27.6774 4.17764e-06 -3.36009 
463 2 2.85816 5.72196 -28.3519 2.97681e-06 -3.36008 
464 2 4.57929 17.768 -28.3519 2.98347e-06 -3.36008 
465 2 2.28506 16.0471 -28.3519 2.97678e-06 -3.36008 
466 2 -0.00917253 14.3263 -28.3519 2.97388e-06 -3.36008 
467 2 5.15238 7.44282 -28.3519 2.9579e-06 -3.36008 
468 2 0.563928 4.00109 -28.3519 2.99541e-06 -3.36008 
469 2 12.6082 2.28022 -28.3519 2.99861e-06 -3.36008 
470 2 10.3139 0.559356 -28.3519 2.98758e-06 -3.36008 
471 2 12.0351 12.6054 -28.3519 2.97087e-06 -3.36008 
472 2 9.74084 10.8845 -28.3519 2.95913e-06 -3.36008 
473 2 7.44661 9.16368 -28.3519 2.95092e-06 -3.36008 
474 2 3.14481 2.94945 -29.0266 2.09347e-06 -3.36006 
475 2 4.86594 14.9955 -29.0266 2.07587e-06 -3.36006 
476 2 2.57171 13.2746 -29.0266 2.06837e-06 -3.36006 
477 2 0.27748 11.5538 -29.0266 2.07055e-06 -3.36006 
478 2 5.43904 4.67031 -29.0266 2.08051e-06 -3.36006 
479 2 0.850581 1.22858 -29.0266 2.09819e-06 -3.36006 
480 2 9.4544 18.4372 -29.0266 2.09564e-06 -3.36006 
481 2 7.16017 16.7164 -29.0266 2.0893e-06 -3.36006 
482 2 12.3217 9.83291 -29.0266 2.06978e-06 -3.36006 
483 2 10.0275 8.11204 -29.0266 2.0633e-06 -3.36006 
484 2 7.73327 6.39118 -29.0266 2.06821e-06 -3.36006 
485 2 3.43146 0.176937 -29.7012 1.47684e-06 -3.36005 
486 2 5.15259 12.223 -29.7012 1.46233e-06 -3.36005 
487 2 2.85836 10.5021 -29.7012 1.46026e-06 -3.36005 
488 2 0.564135 8.78126 -29.7012 1.4618e-06 -3.36005 
489 2 5.72569 1.8978 -29.7012 1.47213e-06 -3.36005 
490 2 -2.30319 17.3856 -29.7012 1.47992e-06 -3.36005 
491 2 9.74105 15.6647 -29.7012 1.47487e-06 -3.36005 
492 2 7.44682 13.9439 -29.7012 1.46763e-06 -3.36005 
493 2 12.6084 7.0604 -29.7012 1.4601e-06 -3.36005 
494 2 10.3141 5.33953 -29.7012 1.4567e-06 -3.36005 
495 2 8.01992 3.61867 -29.7012 1.46457e-06 -3.36005 
496 2 0.277692 16.334 -30.376 1.01041e-06 -3.36003 
497 2 5.43924 9.45049 -30.376 1.00203e-06 -3.36003 
498 2 3.14502 7.72962 -30.376 1.00346e-06 -3.36003 
499 2 0.850791 6.00876 -30.376 1.00425e-06 -3.36003 
500 2 2.57192 18.0548 -30.376 1.00879e-06 -3.36003 
501 2 -2.01654 14.6131 -30.376 1.01035e-06 -3.36003 
502 2 10.0277 12.8922 -30.376 1.00578e-06 -3.36003 
503 2 7.73347 11.1714 -30.376 1.00232e-06 -3.36003 
504 2 12.895 4.28789 -30.376 1.00513e-06 -3.36003 
505 2 10.6008 2.56702 -30.376 1.00581e-06 -3.36003 
506 2 8.30657 0.84616 -30.376 1.00751e-06 -3.36003 
507 2 0.564342 13.5614 -31.0508 6.75924e-07 -3.36002 
508 2 5.7259 6.67798 -31.0508 6.75669e-07 -3.36002 
509 2 3.43167 4.95712 -31.0508 6.77403e-07 -3.36002 
510 2 1.13744 3.23625 -31.0508 6.77846e-07 -3.36002 
511 2 2.85857 15.2823 -31.0508 6.75994e-07 -3.36002 
512 2 -1.72989 11.8406 -31.0508 6.75786e-07 -3.36002 
513 2 10.3144 10.1197 -31.0508 6.73909e-07 -3.36002 
514 2 8.02013 8.39885 -31.0508 6.75345e-07 -3.36002 
515 2 13.1817 1.51538 -31.0508 6.76358e-07 -3.36002 
516 2 7.44703 18.724 -31.0508 6.75945e-07 -3.36002 
517 2 5.1528 17.0032 -31.0508 6.76671e-07 -3.36002 
518 2 0.850993 10.7889 -31.7256 4.69709e-07 -3.36001 
519 2 6.01255 3.90547 -31.7256 4.70703e-07 -3.36001 
520 2 3.71832 2.18461 -31.7256 4.70236e-07 -3.36001 
521 2 1.42409 0.463743 -31.7256 4.68927e-07 -3.36001 
522 2 3.14522 12.5098 -31.7256 4.69974e-07 -3.36001 
523 2 -1.44323 9.06807 -31.7256 4.69822e-07 -3.36001 
524 2 10.601 7.34721 -31.7256 4.70225e-07 -3.36001 
525 2 8.30678 5.62634 -31.7256 4.70497e-07 -3.36001 
526 2 10.0279 17.6724 -31.7256 4.68395e-07 -3.36001 
527 2 7.73368 15.9515 -31.7256 4.69242e-07 -3.36001 
528 2 5.43945 14.2307 -31.7256 4.70703e-07 -3.36001 
529 2 1.13764 8.01643 -32.4005 3.14483e-07 -3.36 
530 2 6.2992 1.13297 -32.4005 3.16404e-07 -3.36 
531 2 0.56455 18.3416 -32.4005 3.14256e-07 -3.36 
532 2 -1.72968 16.6208 -32.4005 3.1327e-07 -3.36 
533 2 3.43187 9.73729 -32.4005 3.14464e-07 -3.36 
534 2 -1.15658 6.29556 -32.4005 3.15323e-07 -3.36 
535 2 10.8877 4.5747 -32.4005 3.17789e-07 -3.36 
536 2 8.59343 2.85383 -32.4005 3.187e-07 -3.36 
537 2 10.3146 14.8999 -32.4005 3.12722e-07 -3.36 
538 2 8.02033 13.179 -32.4005 3.14078e-07 -3.36 
539 2 5.7261 11.4582 -32.4005 3.15006e-07 -3.36 
540 2 1.4243 5.24393 -33.0754 2.03734e-07 -3.36 
541 2 3.14543 17.29 -33.0754 2.0425e-07 -3.36 
542 2 0.851199 15.5691 -33.0754 2.02324e-07 -3.36 
543 2 -1.44303 13.8483 -33.0754 2.01214e-07 -3.36 
544 2 3.71852 6.96479 -33.0754 2.03991e-07 -3.36 
545 2 13.4685 3.52306 -33.0754 2.05325e-07 -3.36 
546 2 11.1743 1.80219 -33.0754 2.07991e-07 -3.36 
547 2 8.88008 0.081328 -33.0754 2.06609e-07 -3.36 
548 2 10.6012 12.1274 -33.0754 2.01171e-07 -3.36 
549 2 8.30698 10.4065 -33.0754 2.02913e-07 -3.36 
550 2 6.01275 8.68566 -33.0754 2.03696e-07 -3.36 
551 2 1.71095 2.47142 -33.7503 1.37025e-07 -3.35999 
552 2 3.43208 14.5175 -33.7503 1.39478e-07 -3.35999 
553 2 1.13785 12.7966 -33.7503 1.38137e-07 -3.35999 
554 2 -1.15638 11.0757 -33.7503 1.36829e-07 -3.35999 
555 2 4.00518 4.19228 -33.7503 1.37353e-07 -3.35999 
556 2 13.7552 0.750552 -33.7503 1.38271e-07 -3.35999 
557 2 8.02054 17.9592 -33.7503 1.39848e-07 -3.35999 
558 2 5.72631 16.2383 -33.7503 1.40682e-07 -3.35999 
559 2 10.8879 9.35488 -33.7503 1.37413e-07 -3.35999 
560 2 8.59363 7.63401 -33.7503 1.38351e-07 -3.35999 
561 2 6.2994 5.91315 -33.7503 1.37773e-07 -3.35999 
562 2 -1.44282 18.6284 -34.4252 9.01353e-08 -3.35999 
563 2 3.71873 11.745 -34.4252 9.12451e-08 -3.35999 
564 2 1.4245 10.0241 -34.4252 9.0442e-08 -3.35999 
565 2 -0.869728 8.30324 -34.4252 9.05901e-08 -3.35999 
566 2 4.29183 1.41978 -34.4252 9.05694e-08 -3.35999 
567 2 10.6014 16.9076 -34.4252 9.05336e-08 -3.35999 
568 2 8.30719 15.1867 -34.4252 9.20938e-08 -3.35999 
569 2 6.01296 13.4658 -34.4252 9.2523e-08 -3.35999 
570 2 11.1745 6.58237 -34.4252 9.15148e-08 -3.35999 
571 2 8.88028 4.86151 -34.4252 9.18569e-08 -3.35999 
572 2 6.58606 3.14064 -34.4252 9.1137e-08 -3.35999 
573 2 -1.15617 15.8559 -35.1002 5.68996e-08 -3.35998 
574 2 4.00538 8.97247 -35.1002 5.79227e-08 -3.35998 