ITEM: TIMESTEP
0
ITEM: NUMBER OF ATOMS
3299
ITEM: BOX BOUNDS xy xz yz pp pp ff
-3.4469458971107225e+00 1.4325216517832089e+01 -3.4406416983063126e+00
-9.0186163668103739e-03 1.8909982877483113e+01 0.0000000000000000e+00
-1.2150000000000000e+02 1.2150000000000000e+02 0.0000000000000000e+00
ITEM: ATOMS id type x y z c_csym c_eng 
1 2 11.6885 8.25307 0.351708 7.1284 -3.28004 
2 2 2.17126 1.85479 -0.0192939 3.94661 -3.32051 
3 2 14.235 0.161695 0.0887066 5.65722 -3.38469 
4 2 8.49165 17.4022 0.0217303 5.34479 -3.37183 
5 2 -0.447662 10.0358 0.275895 2.3054 -3.30796 
6 2 9.02077 7.12268 0.014011 9.03215 -3.37369 
7 2 6.77114 5.26617 0.0900222 5.91759 -3.36092 
8 2 4.46146 3.59237 0.0242347 4.97279 -3.33191 
9 2 6.23264 15.6634 0.00448974 7.16817 -3.37543 
10 2 3.99003 13.7956 0.0871309 5.68418 -3.36608 
11 2 1.67753 12.0301 0.123021 5.73952 -3.35979 
12 2 11.521 6.07601 -1.23662 3.81474 -3.29026 
13 2 -1.10013 18.2331 -1.17137 2.34157 -3.30832 
14 2 10.9316 16.4757 -1.09239 1.70712 -3.27939 
15 2 8.71376 14.6552 -0.936398 0.824836 -3.36682 
16 2 -0.494992 7.75788 -1.27784 5.1936 -3.28052 
17 2 9.21296 4.48776 -1.16301 2.0466 -3.32782 
18 2 6.92287 2.77242 -1.18193 2.15753 -3.31526 
19 2 4.63997 1.05107 -1.1971 1.65304 -3.28899 
20 2 6.37515 13.0033 -1.11147 1.88656 -3.26519 
21 2 4.016 11.2641 -1.21033 3.21275 -3.28112 
22 2 1.7532 9.52294 -1.23771 3.66393 -3.27738 
23 2 11.894 3.29885 -1.85814 0.126558 -3.30491 
24 2 -0.665332 15.4199 -1.69564 1.18772 -3.32786 
25 2 11.3145 13.6679 -1.71244 2.87583 -3.2945 
26 2 8.97274 11.8878 -1.72434 4.2629 -3.29313 
27 2 -0.134392 4.94576 -1.82708 0.125564 -3.33371 
28 2 9.60948 1.65846 -1.84315 0.185344 -3.31888 
29 2 3.90261 18.8994 -1.82617 0.356605 -3.31475 
30 2 1.63148 17.1715 -1.78532 0.592453 -3.32392 
31 2 6.67999 10.111 -1.64365 1.74556 -3.36568 
32 2 4.32754 8.39832 -1.855 0.291586 -3.30332 
33 2 2.07963 6.63267 -1.83685 0.183499 -3.32625 
34 2 12.207 0.414025 -2.31393 0.606422 -3.34401 
35 2 -0.427319 12.4858 -1.97682 5.96696 -3.38143 
36 2 11.6264 10.7755 -2.07014 5.65854 -3.35912 
37 2 9.33295 9.07986 -2.0953 3.82117 -3.35801 
38 2 0.176823 2.11907 -2.33363 0.605813 -3.34936 
39 2 6.44987 17.6448 -2.28852 0.551148 -3.34364 
40 2 4.15761 15.9066 -2.21471 1.07927 -3.34796 
41 2 1.85653 14.1778 -2.1227 1.8331 -3.3411 
42 2 7.07003 7.33028 -2.31393 0.909876 -3.32611 
43 2 4.7976 5.60302 -2.29544 0.871192 -3.35245 
44 2 2.48992 3.85354 -2.28383 0.560332 -3.34153 
45 2 8.98912 16.6279 -3.00259 0.204074 -3.33283 
46 2 -0.24039 9.82274 -3.09116 1.54331 -3.32722 
47 2 11.8281 8.10759 -3.10175 1.70173 -3.33472 
48 2 9.56624 6.39615 -3.12085 0.492816 -3.30246 
49 2 -3.05119 18.3675 -3.08953 0.451824 -3.31798 
50 2 6.72561 14.9426 -2.99463 0.200839 -3.33286 
51 2 4.39288 13.2432 -3.05448 0.5688 -3.32615 
52 2 2.04865 11.5386 -3.08416 0.952115 -3.30321 
53 2 7.28734 4.65952 -3.1335 0.523628 -3.31989 
54 2 4.98571 2.94143 -3.13197 0.474673 -3.31643 
55 2 2.69016 1.19881 -3.12412 0.431444 -3.31639 
56 2 9.31498 13.8526 -3.66698 0.0324649 -3.33191 
57 2 0.125203 6.96855 -3.82429 0.0687096 -3.33162 
58 2 12.1874 5.27279 -3.81341 0.0401804 -3.34298 
59 2 9.89086 3.58212 -3.80184 0.0334407 -3.34454 
60 2 -2.70257 15.5756 -3.69517 0.0642982 -3.34143 
61 2 7.00391 12.1252 -3.70082 0.0410825 -3.34043 
62 2 4.71687 10.4182 -3.7508 0.0684301 -3.35434 
63 2 2.39148 8.69297 -3.8019 0.0460784 -3.33918 
64 2 7.6015 1.86614 -3.80345 0.0434331 -3.33929 
65 2 5.31321 0.132882 -3.78542 0.0525411 -3.34163 
66 2 -0.414347 17.3052 -3.74079 0.0624129 -3.34524 
67 2 9.636 11.0511 -4.30028 0.197553 -3.35641 
68 2 0.463416 4.15173 -4.3993 0.0856809 -3.35977 
69 2 12.4929 2.44219 -4.41008 0.0648995 -3.3581 
70 2 10.201 0.73526 -4.38764 0.0728097 -3.36147 
71 2 11.9331 12.7504 -4.26692 0.293298 -3.35349 
72 2 7.33657 9.34529 -4.30608 0.143885 -3.35522 
73 2 5.03139 7.61267 -4.39583 0.105931 -3.362 
74 2 2.75271 5.87521 -4.39673 0.112118 -3.361 
75 2 4.46694 17.9305 -4.3613 0.111106 -3.36185 
76 2 2.17936 16.1985 -4.31973 0.181982 -3.36016 
77 2 -0.109987 14.4617 -4.25348 0.318387 -3.35273 
78 2 9.86876 8.34263 -5.06134 0.134813 -3.33144 
79 2 0.71821 1.40787 -5.09849 0.0451761 -3.33661 
80 2 9.31454 18.5984 -5.06457 0.0271542 -3.34042 
81 2 7.03098 16.8883 -5.02873 0.0116577 -3.33688 
82 2 12.1602 10.0518 -5.06903 0.172731 -3.32645 
83 2 7.59432 6.61197 -5.09796 0.0590689 -3.33083 
84 2 5.30502 4.87686 -5.10876 0.0578907 -3.33474 
85 2 3.01167 3.14256 -5.10461 0.0632941 -3.33861 
86 2 4.73811 15.1861 -5.0216 0.0382206 -3.34136 
87 2 2.42523 13.4794 -5.03024 0.103652 -3.33178 
88 2 0.119636 11.768 -5.04457 0.219174 -3.32449 
89 2 10.1811 5.54193 -5.76781 0.00794733 -3.35755 
90 2 -2.4216 17.5402 -5.71854 0.00551431 -3.36329 
91 2 9.6187 15.8231 -5.68071 0.00618092 -3.36406 
92 2 7.32461 14.1145 -5.67809 0.00514341 -3.3634 
93 2 12.4626 7.25987 -5.76163 0.0104207 -3.35408 
94 2 7.89395 3.81879 -5.77387 0.00506811 -3.35813 
95 2 5.60141 2.08767 -5.76826 0.00702802 -3.35944 
96 2 3.30988 0.350852 -5.75065 0.00780942 -3.36281 
97 2 5.02299 12.408 -5.70415 0.00682743 -3.35665 
98 2 2.72237 10.695 -5.73111 0.0124266 -3.36162 
99 2 0.42113 8.97719 -5.75294 0.0117781 -3.3529 
100 2 10.4868 2.73165 -6.4184 0.0081804 -3.36293 
101 2 -2.11593 14.7546 -6.33165 0.0308741 -3.36385 
102 2 9.92127 13.0478 -6.32789 0.0224161 -3.36755 
103 2 7.62345 11.3346 -6.34544 0.0177634 -3.35932 
104 2 12.7803 4.45031 -6.42183 0.00927415 -3.35901 
105 2 8.19707 1.00664 -6.40663 0.0110937 -3.36503 
106 2 2.46483 18.1971 -6.38597 0.016775 -3.36293 
107 2 0.173301 16.4672 -6.35161 0.0312383 -3.36444 
108 2 5.32935 9.61969 -6.37688 0.0153793 -3.36027 
109 2 3.02595 7.89508 -6.41071 0.012213 -3.35801 
110 2 0.737819 6.16894 -6.42127 0.013165 -3.35681 
111 2 7.33512 18.8638 -7.05954 0.0014021 -3.35176 
112 2 -1.84899 12.013 -7.04575 0.0234868 -3.33973 
113 2 10.1873 10.2962 -7.0541 0.0164393 -3.341 
114 2 7.89658 8.57814 -7.06054 0.0132922 -3.3495 
115 2 13.0653 1.66535 -7.07942 0.00231732 -3.35181 
116 2 5.04663 17.1481 -7.04391 0.00173686 -3.35169 
117 2 2.75111 15.4357 -7.03585 0.00606287 -3.34996 
118 2 0.450248 13.726 -7.03408 0.0197121 -3.34529 
119 2 5.60852 6.84951 -7.08387 0.0049276 -3.34905 
120 2 3.31674 5.11978 -7.09118 0.00538355 -3.34883 
121 2 1.02546 3.39154 -7.08884 0.00450391 -3.35049 
122 2 7.63168 16.0853 -7.70224 0.00112255 -3.3605 
123 2 -1.55778 9.23428 -7.73609 0.0013536 -3.3601 
124 2 10.4809 7.51659 -7.74005 0.0023416 -3.36142 
125 2 8.19501 5.79004 -7.75776 0.00239558 -3.35893 
126 2 9.92156 17.7991 -7.72054 0.00148094 -3.36035 
127 2 5.33716 14.376 -7.70175 0.00116691 -3.3615 
128 2 3.03689 12.6663 -7.71009 0.00148366 -3.36189 
129 2 0.737128 10.9536 -7.72045 0.00213561 -3.36207 
130 2 5.90422 4.06108 -7.76242 0.00213255 -3.36066 
131 2 3.61243 2.33124 -7.75633 0.00184317 -3.36141 
132 2 1.32145 0.602507 -7.74306 0.00199078 -3.36044 
133 2 7.92342 13.3148 -8.35935 0.00310195 -3.36272 
134 2 13.0723 6.44397 -8.41464 0.00130482 -3.36094 
135 2 10.7833 4.72129 -8.41727 0.00134223 -3.36032 
136 2 8.49307 2.99543 -8.4166 0.00135742 -3.36062 
137 2 10.2173 15.0267 -8.35942 0.00408653 -3.36237 
138 2 5.62723 11.6022 -8.3735 0.00190922 -3.36073 
139 2 3.33019 9.88634 -8.39232 0.00137868 -3.36214 
140 2 1.0333 8.16605 -8.40838 0.0013436 -3.361 
141 2 6.20204 1.26847 -8.40826 0.00174877 -3.36172 
142 2 0.469989 18.4607 -8.39227 0.00315126 -3.36251 
143 2 -1.82139 16.7409 -8.37407 0.00389693 -3.36152 
144 2 8.20502 10.5487 -9.05154 0.00166347 -3.35424 
145 2 13.3678 3.65505 -9.08154 0.000287321 -3.35596 
146 2 11.0777 1.93127 -9.07494 0.000431166 -3.3572 
147 2 8.78793 0.209437 -9.06492 0.000405789 -3.35685 
148 2 10.4992 12.2657 -9.04457 0.00257133 -3.35476 
149 2 5.91259 8.82879 -9.065 0.000884877 -3.35545 
150 2 3.61975 7.10492 -9.07839 0.000398815 -3.3556 
151 2 1.32727 5.37977 -9.08336 0.000312727 -3.35485 
152 2 3.05585 17.4094 -9.05467 0.000544897 -3.35674 
153 2 0.761106 15.6936 -9.04571 0.00139872 -3.35533 
154 2 -1.53552 13.9799 -9.04269 0.00237733 -3.35365 
155 2 8.49726 7.77018 -9.73992 0.000699423 -3.35986 
156 2 13.6626 0.868998 -9.73766 0.000383305 -3.35962 
157 2 7.93178 18.0678 -9.72499 0.000349001 -3.35956 
158 2 5.64076 16.3515 -9.71687 0.000392515 -3.3597 
159 2 10.7895 9.48972 -9.73305 0.000513149 -3.35934 
160 2 6.20564 6.04564 -9.74971 0.000613986 -3.35906 
161 2 3.91352 4.31922 -9.75211 0.000478009 -3.35941 
162 2 1.62202 2.59321 -9.74752 0.00035127 -3.35976 
163 2 3.34615 14.6374 -9.71557 0.000426012 -3.36008 
164 2 1.04927 12.9236 -9.7186 0.000468933 -3.36062 
165 2 -1.24698 11.2078 -9.72631 0.000552677 -3.36009 
166 2 8.79258 4.98277 -10.4153 0.00048476 -3.35892 
167 2 10.5174 17.0092 -10.3869 0.000809967 -3.35935 
168 2 8.22514 15.2934 -10.3792 0.000806834 -3.35964 
169 2 5.93135 13.5793 -10.3804 0.000565919 -3.35992 
170 2 11.083 6.70676 -10.4099 0.000363693 -3.35961 
171 2 6.50131 3.25749 -10.415 0.000500437 -3.35917 
172 2 4.20976 1.53236 -10.4087 0.000551924 -3.35973 
173 2 -1.52228 18.7285 -10.3987 0.000700757 -3.35928 
174 2 3.63553 11.8647 -10.3878 0.000366291 -3.35997 
175 2 1.3393 10.148 -10.397 0.000348422 -3.36018 
176 2 -0.955601 8.42779 -10.4059 0.000283661 -3.35919 
177 2 9.08731 2.19707 -11.0756 0.000247263 -3.35885 
178 2 10.8066 14.2404 -11.0512 0.000512667 -3.35832 
179 2 8.51215 12.5246 -11.0525 0.000444646 -3.35819 
180 2 6.21812 10.8074 -11.0592 0.000255043 -3.358 
181 2 11.3779 3.9205 -11.0788 0.000234947 -3.35854 
182 2 6.7962 0.474913 -11.0696 0.000237148 -3.3589 
183 2 1.06332 17.6738 -11.062 0.000270961 -3.35857 
184 2 -1.23031 15.9562 -11.0552 0.000385389 -3.35821 
185 2 3.92393 9.08827 -11.0687 0.000162192 -3.35821 
186 2 1.63015 7.36664 -11.0764 0.000176213 -3.35829 
187 2 -0.662598 5.64379 -11.0793 0.000173111 -3.35829 
188 2 5.94051 18.3359 -11.7319 0.000180109 -3.35912 
189 2 11.0952 11.4686 -11.7289 0.000256877 -3.35974 
190 2 8.80124 9.75022 -11.7337 0.000253279 -3.35916 
191 2 6.50833 8.02972 -11.7405 0.000235037 -3.35904 
192 2 11.6721 1.1372 -11.7384 0.00018589 -3.35909 
193 2 3.64829 16.6179 -11.7272 0.000192685 -3.35937 
194 2 1.35411 14.9014 -11.7251 0.000211436 -3.35965 
195 2 -0.941101 13.1854 -11.7259 0.000242269 -3.3596 
196 2 4.21541 6.30693 -11.7462 0.000216137 -3.35876 
197 2 1.92292 4.58316 -11.7474 0.000182719 -3.35878 
198 2 -0.368609 2.85958 -11.7443 0.000170683 -3.35895 
199 2 6.2325 15.5611 -12.3923 0.000233591 -3.35944 
200 2 11.386 8.69067 -12.4066 0.000158516 -3.35885 
201 2 9.09328 6.9698 -12.4105 0.000194216 -3.3591 
202 2 6.80112 5.24696 -12.4139 0.000215675 -3.35918 
203 2 8.52485 17.2784 -12.3958 0.000233321 -3.35939 
204 2 3.93866 13.8448 -12.3931 0.000188121 -3.35947 
205 2 1.6437 12.1282 -12.3968 0.000155893 -3.35932 
206 2 -0.651285 10.4102 -12.4021 0.000152169 -3.35906 
207 2 4.50904 3.52335 -12.4134 0.000201808 -3.35933 
208 2 2.21725 1.80031 -12.4092 0.000186492 -3.35937 
209 2 14.2572 0.0787487 -12.4026 0.000206686 -3.35938 
210 2 6.52148 12.7888 -13.0624 0.0001522 -3.35894 
211 2 11.6781 5.90962 -13.0787 0.00013389 -3.35913 
212 2 9.38642 4.18713 -13.0794 0.000156033 -3.35894 
213 2 7.09482 2.46459 -13.0777 0.000151258 -3.35901 
214 2 8.81518 14.5059 -13.0609 0.000178517 -3.35892 
215 2 4.22732 11.0711 -13.0669 0.000125113 -3.35906 
216 2 1.93301 9.35196 -13.0724 0.000121388 -3.35919 
217 2 -0.36074 7.63122 -13.0768 0.000125137 -3.35905 
218 2 4.80294 0.742911 -13.0736 0.000136138 -3.35901 
219 2 -0.930046 17.9417 -13.0683 0.000141809 -3.3589 
220 2 11.1085 16.2232 -13.0634 0.000161244 -3.35888 
221 2 6.81048 10.0142 -13.7381 0.000126103 -3.35916 
222 2 11.971 3.12813 -13.7451 0.000116222 -3.35912 
223 2 9.67955 1.40653 -13.742 0.000112981 -3.35919 
224 2 3.94714 18.6052 -13.7383 0.000109143 -3.35926 
225 2 9.10415 11.733 -13.7343 0.000136042 -3.35934 
226 2 4.517 8.29403 -13.7428 0.000120378 -3.35911 
227 2 2.22378 6.57249 -13.7462 0.00012226 -3.35902 
228 2 -0.0688142 4.85031 -13.7467 0.000116544 -3.35904 
229 2 1.65447 16.8862 -13.735 0.000110814 -3.35935 
230 2 -0.639156 15.1683 -13.733 0.000119936 -3.35937 
231 2 11.3982 13.4509 -13.7326 0.000133572 -3.35944 
232 2 7.10115 7.23602 -14.4125 0.000117979 -3.35924 
233 2 12.2637 0.349267 -14.4074 0.000105264 -3.35931 
234 2 6.53114 17.5487 -14.4038 0.000109707 -3.35933 
235 2 4.23844 15.8303 -14.4019 0.000109632 -3.35939 
236 2 9.39413 8.95676 -14.4093 0.000113757 -3.35924 
237 2 4.80841 5.51419 -14.4145 0.000119315 -3.35924 
238 2 2.51598 3.792 -14.414 0.000109895 -3.35926 
239 2 0.22398 2.07016 -14.4113 0.000102749 -3.35929 
240 2 1.94475 14.1126 -14.402 0.000103543 -3.35943 
241 2 -0.349525 12.3948 -14.4037 0.000102099 -3.35939 
242 2 11.6877 10.6763 -14.4063 0.000106229 -3.35937 
243 2 7.39296 4.45623 -15.0816 0.000102209 -3.35923 
244 2 9.11447 16.4932 -15.0711 9.15687e-05 -3.35925 
245 2 6.8215 14.7749 -15.0699 9.52325e-05 -3.35926 
246 2 4.52797 13.0569 -15.0711 8.95779e-05 -3.35926 
247 2 9.68528 6.17789 -15.081 9.94482e-05 -3.35921 
248 2 5.10075 2.73453 -15.0805 9.41412e-05 -3.35925 
249 2 2.80853 1.01341 -15.0777 8.54929e-05 -3.35925 
250 2 -2.92446 18.2123 -15.0742 8.46831e-05 -3.35924 
251 2 2.234 11.3384 -15.0738 8.58396e-05 -3.35927 
252 2 -0.0599776 9.61912 -15.0769 8.79624e-05 -3.3592 
253 2 11.978 7.89889 -15.0793 9.3727e-05 -3.35916 
254 2 7.68501 1.67773 -15.7466 7.92661e-05 -3.35927 
255 2 9.40421 13.7198 -15.7398 8.21078e-05 -3.35936 
256 2 7.11068 12.0013 -15.7411 8.23469e-05 -3.35932 
257 2 4.81708 10.2822 -15.7438 8.14677e-05 -3.35931 
258 2 9.97705 3.39879 -15.7483 8.40714e-05 -3.35925 
259 2 1.95208 18.8764 -15.7443 7.41812e-05 -3.35931 
260 2 -0.340665 17.1569 -15.7419 7.30314e-05 -3.35932 
261 2 -2.63386 15.4382 -15.7402 7.67521e-05 -3.35934 
262 2 2.52353 8.56222 -15.7467 8.37545e-05 -3.35931 
263 2 0.230296 6.84142 -15.7485 8.58611e-05 -3.35926 
264 2 12.2692 5.12018 -15.749 8.50324e-05 -3.35927 
265 2 4.5357 17.8208 -16.4112 7.03518e-05 -3.35938 
266 2 9.69352 10.9456 -16.4117 7.69828e-05 -3.35941 
267 2 7.40014 9.22595 -16.4139 7.93387e-05 -3.35936 
268 2 5.10698 7.50551 -16.416 8.10332e-05 -3.35935 
269 2 10.2687 0.621508 -16.4131 7.10232e-05 -3.35936 
270 2 2.24281 16.1017 -16.4099 7.01483e-05 -3.35942 
271 2 -0.0506203 14.3831 -16.4096 7.07111e-05 -3.35943 
272 2 11.9872 12.6646 -16.4102 7.34391e-05 -3.35944 
273 2 2.81404 5.78444 -16.4172 8.11867e-05 -3.35933 
274 2 0.521453 4.06315 -16.4168 7.70621e-05 -3.35933 
275 2 12.5608 2.34205 -16.4153 7.31276e-05 -3.35934 
276 2 4.82575 15.0467 -17.0783 6.47661e-05 -3.3594 
277 2 9.98327 8.16956 -17.0836 7.28394e-05 -3.35937 
278 2 7.69039 6.44892 -17.0848 7.43029e-05 -3.35937 
279 2 5.39772 4.72788 -17.0853 7.32946e-05 -3.35937 
280 2 7.11871 16.7656 -17.0788 6.37706e-05 -3.35938 
281 2 2.53234 13.328 -17.0789 6.4709e-05 -3.35941 
282 2 0.238656 11.609 -17.0803 6.61195e-05 -3.35941 
283 2 12.2765 9.8896 -17.082 6.94035e-05 -3.35939 
284 2 3.1052 3.00682 -17.0845 6.8363e-05 -3.35937 
285 2 0.812802 1.28612 -17.0827 6.36256e-05 -3.35937 
286 2 9.41129 18.485 -17.0805 6.23656e-05 -3.35937 
287 2 5.1149 12.2729 -17.7484 5.99366e-05 -3.35942 
288 2 10.2736 5.3926 -17.7532 6.59894e-05 -3.35938 
289 2 7.98115 3.67174 -17.753 6.42505e-05 -3.35938 
290 2 5.68871 1.95106 -17.752 6.03645e-05 -3.35939 
291 2 7.40825 13.992 -17.7474 5.89166e-05 -3.35942 
292 2 2.82142 10.5536 -17.75 6.15803e-05 -3.35941 
293 2 0.527984 8.8337 -17.7517 6.42089e-05 -3.35939 
294 2 12.5664 7.11333 -17.7528 6.61043e-05 -3.35938 
295 2 3.39617 0.230823 -17.7504 5.67309e-05 -3.3594 
296 2 -2.3372 17.4301 -17.7488 5.55334e-05 -3.35941 
297 2 9.70139 15.7109 -17.7476 5.69779e-05 -3.35942 
298 2 5.40401 9.49826 -18.4197 5.91355e-05 -3.35946 
299 2 10.5642 2.61608 -18.4207 5.67603e-05 -3.35942 
300 2 8.27182 0.895757 -18.4195 5.43765e-05 -3.35943 
301 2 2.53857 18.0949 -18.4183 5.27779e-05 -3.35945 
302 2 7.6973 11.218 -18.4182 5.72999e-05 -3.35946 
303 2 3.11081 7.77806 -18.4211 6.08587e-05 -3.35945 
304 2 0.817826 6.05747 -18.4217 6.10928e-05 -3.35943 
305 2 12.8567 4.33673 -18.4215 5.9215e-05 -3.35943 
306 2 0.245656 16.3755 -18.4174 5.23633e-05 -3.35946 
307 2 -2.04754 14.6564 -18.417 5.33193e-05 -3.35948 
308 2 9.99064 12.9373 -18.4172 5.53409e-05 -3.35948 
309 2 5.69355 6.72264 -19.0901 5.66899e-05 -3.35947 
310 2 7.41388 18.7599 -19.0875 4.90253e-05 -3.35946 
311 2 5.12118 17.0403 -19.0866 4.87548e-05 -3.35947 
312 2 2.8282 15.321 -19.0862 4.9132e-05 -3.35949 
313 2 7.98654 8.44301 -19.0892 5.59106e-05 -3.35948 
314 2 3.40072 5.00202 -19.0904 5.58698e-05 -3.35947 
315 2 1.10805 3.2814 -19.0898 5.32274e-05 -3.35946 
316 2 13.147 1.56098 -19.0887 5.05248e-05 -3.35946 
317 2 0.534927 13.6019 -19.0865 5.01008e-05 -3.3595 
318 2 -1.75848 11.8826 -19.0872 5.19324e-05 -3.3595 
319 2 10.2797 10.163 -19.0881 5.41715e-05 -3.35949 
320 2 5.98345 3.94695 -19.7588 5.01829e-05 -3.35949 
321 2 7.70344 15.9861 -19.7554 4.46327e-05 -3.3595 
322 2 5.41039 14.2668 -19.7554 4.54803e-05 -3.35951 
323 2 3.11715 12.5474 -19.756 4.66958e-05 -3.35951 
324 2 8.27615 5.66746 -19.759 5.15008e-05 -3.35949 
325 2 3.6908 2.22653 -19.7582 4.77444e-05 -3.35949 
326 2 1.39814 0.506384 -19.7572 4.54636e-05 -3.35949 
327 2 9.99629 17.7056 -19.7561 4.44054e-05 -3.3595 
328 2 0.823808 10.8279 -19.7569 4.84929e-05 -3.35951 
329 2 -1.46947 9.10805 -19.7579 5.04306e-05 -3.3595 
330 2 10.569 7.38788 -19.7586 5.15879e-05 -3.35949 
331 2 6.27329 1.17204 -20.4266 4.30717e-05 -3.35952 
332 2 7.99236 13.2127 -20.425 4.26951e-05 -3.35954 
333 2 5.69916 11.4931 -20.4256 4.4031e-05 -3.35954 
334 2 3.40594 9.77337 -20.4266 4.55968e-05 -3.35953 
335 2 8.56593 2.89223 -20.4273 4.48235e-05 -3.35951 
336 2 0.539908 18.3711 -20.4258 4.17134e-05 -3.35952 
337 2 -1.75299 16.6515 -20.4251 4.12035e-05 -3.35953 
338 2 10.2855 14.9321 -20.4248 4.16397e-05 -3.35954 
339 2 1.11279 8.05331 -20.4274 4.69362e-05 -3.35953 
340 2 13.1513 6.33302 -20.4278 4.7235e-05 -3.35952 
341 2 10.8586 4.61261 -20.4277 4.63461e-05 -3.35951 
342 2 3.12204 17.3172 -21.0946 3.83436e-05 -3.35955 
343 2 8.28106 10.4389 -21.0954 4.16178e-05 -3.35956 
344 2 5.98795 8.719 -21.0961 4.27905e-05 -3.35956 
345 2 3.69493 6.99882 -21.0967 4.34438e-05 -3.35956 
346 2 8.85548 0.117907 -21.0952 3.88971e-05 -3.35954 
347 2 0.829058 15.5976 -21.0944 3.84286e-05 -3.35956 
348 2 -1.46408 13.8782 -21.0944 3.91175e-05 -3.35957 
349 2 10.5742 12.1586 -21.0948 4.0292e-05 -3.35957 
350 2 1.40204 5.27849 -21.0968 4.30551e-05 -3.35955 
351 2 13.4408 3.55814 -21.0965 4.1676e-05 -3.35954 
352 2 11.1481 1.83791 -21.0959 4.00914e-05 -3.35954 
353 2 3.41086 14.5439 -21.7638 3.55319e-05 -3.35958 
354 2 8.56986 7.66479 -21.7657 3.95762e-05 -3.35958 
355 2 6.27695 5.94457 -21.7659 3.96431e-05 -3.35958 
356 2 3.98413 4.22428 -21.7659 3.88924e-05 -3.35957 
357 2 5.70388 16.2634 -21.7638 3.50865e-05 -3.35958 
358 2 1.11771 12.8244 -21.7641 3.64491e-05 -3.35959 
359 2 -1.17549 11.1047 -21.7646 3.76793e-05 -3.35959 
360 2 10.8629 9.38485 -21.7652 3.8852e-05 -3.35958 
361 2 1.69137 2.50404 -21.7654 3.74783e-05 -3.35957 
362 2 13.7302 0.78397 -21.7648 3.60697e-05 -3.35957 
363 2 7.99675 17.9831 -21.7642 3.52231e-05 -3.35957 
364 2 3.69933 11.7707 -22.4339 3.38939e-05 -3.35961 
365 2 8.85881 4.89056 -22.4351 3.57444e-05 -3.35959 
366 2 6.56604 3.17036 -22.4349 3.48722e-05 -3.35959 
367 2 4.27328 1.45026 -22.4345 3.3746e-05 -3.35959 
368 2 5.99246 13.4904 -22.4334 3.29449e-05 -3.35961 
369 2 1.40619 10.0509 -22.4344 3.50103e-05 -3.35961 
370 2 -0.886901 8.33091 -22.4349 3.58826e-05 -3.3596 
371 2 11.1517 6.61078 -22.4351 3.61365e-05 -3.3596 
372 2 -1.46017 18.6493 -22.434 3.27695e-05 -3.3596 
373 2 10.5785 16.9296 -22.4335 3.22721e-05 -3.3596 
374 2 8.28551 15.2099 -22.4333 3.23606e-05 -3.3596 
375 2 3.98774 8.99724 -23.1042 3.2412e-05 -3.35963 
376 2 9.14775 2.11673 -23.1041 3.11696e-05 -3.35962 
377 2 6.85497 0.396753 -23.1037 3.03681e-05 -3.35962 
378 2 1.12147 17.5959 -23.1033 2.98682e-05 -3.35962 
379 2 6.28082 10.7172 -23.1037 3.15754e-05 -3.35963 
380 2 1.69473 7.27718 -23.1045 3.29048e-05 -3.35962 
381 2 -0.598193 5.55702 -23.1046 3.27603e-05 -3.35962 
382 2 11.4405 3.83684 -23.1044 3.20654e-05 -3.35962 
383 2 -1.17149 15.8762 -23.1031 2.97668e-05 -3.35963 
384 2 10.867 14.1566 -23.1031 3.00779e-05 -3.35963 
385 2 8.57391 12.4369 -23.1033 3.07291e-05 -3.35963 
386 2 4.27624 6.22366 -23.7741 2.99242e-05 -3.35965 
387 2 5.9958 18.2625 -23.7731 2.73427e-05 -3.35964 
388 2 3.7029 16.5427 -23.7728 2.7157e-05 -3.35964 
389 2 1.40991 14.823 -23.7728 2.73587e-05 -3.35965 
390 2 6.56919 7.94376 -23.7739 2.97848e-05 -3.35965 
391 2 1.98336 4.50351 -23.7741 2.95402e-05 -3.35964 
392 2 -0.309462 2.7834 -23.7738 2.87531e-05 -3.35964 
393 2 11.7293 1.06338 -23.7734 2.792e-05 -3.35964 
394 2 -0.883165 13.1034 -23.773 2.78737e-05 -3.35965 
395 2 11.1553 11.3836 -23.7732 2.85715e-05 -3.35965 
396 2 8.8622 9.66375 -23.7736 2.927e-05 -3.35965 
397 2 4.56478 3.45025 -24.4436 2.65013e-05 -3.35966 
398 2 6.28415 15.4897 -24.4426 2.47625e-05 -3.35966 
399 2 3.99114 13.77 -24.4427 2.51005e-05 -3.35967 
400 2 1.69807 12.0503 -24.4429 2.56969e-05 -3.35967 
401 2 6.85763 5.17035 -24.4437 2.69744e-05 -3.35966 
402 2 2.27194 1.73022 -24.4433 2.58151e-05 -3.35966 
403 2 14.3106 0.0102881 -24.443 2.51664e-05 -3.35966 
404 2 8.57709 17.2095 -24.4427 2.478e-05 -3.35966 
405 2 -0.595005 10.3304 -24.4432 2.63703e-05 -3.35967 
406 2 11.4435 8.61048 -24.4435 2.68924e-05 -3.35967 
407 2 9.15052 6.89044 -24.4437 2.71086e-05 -3.35967 
408 2 4.85319 0.677257 -25.113 2.31757e-05 -3.35968 
409 2 6.57223 12.7171 -25.1127 2.31065e-05 -3.35969 
410 2 4.27919 10.9973 -25.113 2.36528e-05 -3.35969 
411 2 1.98615 9.27738 -25.1133 2.41991e-05 -3.35969 
412 2 7.14604 2.39721 -25.1132 2.36854e-05 -3.35968 
413 2 -0.880339 17.8764 -25.1128 2.27852e-05 -3.35968 
414 2 11.1582 16.1566 -25.1126 2.26205e-05 -3.35968 
415 2 8.86526 14.4369 -25.1126 2.27329e-05 -3.35969 
416 2 -0.306848 7.55738 -25.1135 2.45223e-05 -3.35969 
417 2 11.7317 5.83732 -25.1135 2.44959e-05 -3.35968 
418 2 9.43888 4.11725 -25.1134 2.41723e-05 -3.35968 
419 2 1.70072 16.8237 -25.7827 2.06302e-05 -3.3597 
420 2 6.8602 9.94443 -25.7831 2.17347e-05 -3.35971 
421 2 4.5672 8.22448 -25.7833 2.20976e-05 -3.35971 
422 2 2.27424 6.50445 -25.7834 2.22294e-05 -3.3597 
423 2 3.99364 18.5435 -25.7828 2.08007e-05 -3.3597 
424 2 -0.592255 15.1039 -25.7826 2.06754e-05 -3.3597 
425 2 11.4462 13.3841 -25.7827 2.09153e-05 -3.35971 
426 2 9.15322 11.6643 -25.7829 2.12975e-05 -3.35971 
427 2 -0.0186634 4.7844 -25.7834 2.20457e-05 -3.3597 
428 2 12.02 3.06437 -25.7832 2.16305e-05 -3.3597 
429 2 9.72715 1.34439 -25.783 2.11639e-05 -3.3597 
430 2 1.98864 14.0513 -26.4528 1.88747e-05 -3.35972 
431 2 7.14816 7.17172 -26.4534 2.00652e-05 -3.35972 
432 2 4.85523 5.4517 -26.4534 2.00419e-05 -3.35972 
433 2 2.56234 3.73167 -26.4534 1.97907e-05 -3.35972 
434 2 4.28163 15.7711 -26.4528 1.87007e-05 -3.35972 
435 2 -0.304378 12.3315 -26.4529 1.91969e-05 -3.35972 
436 2 11.7341 10.6116 -26.4531 1.95676e-05 -3.35972 
437 2 9.44112 8.89171 -26.4533 1.98848e-05 -3.35972 
438 2 0.269467 2.01168 -26.4532 1.93896e-05 -3.35972 
439 2 12.3081 0.291756 -26.453 1.89926e-05 -3.35972 
440 2 6.57457 17.4909 -26.4528 1.87389e-05 -3.35972 
441 2 2.27642 11.279 -27.1233 1.75819e-05 -3.35974 
442 2 7.43611 4.39911 -27.1236 1.7995e-05 -3.35974 
443 2 5.14323 2.67912 -27.1234 1.77326e-05 -3.35974 
444 2 2.85034 0.959175 -27.1233 1.74148e-05 -3.35974 
445 2 4.56943 12.9988 -27.1231 1.72549e-05 -3.35974 
446 2 -0.0165913 9.55907 -27.1234 1.79022e-05 -3.35974 
447 2 12.022 7.83911 -27.1235 1.81028e-05 -3.35974 
448 2 9.72902 6.11912 -27.1236 1.81311e-05 -3.35974 
449 2 -2.8832 18.1583 -27.1231 1.71398e-05 -3.35974 
450 2 9.15539 16.4385 -27.123 1.6997e-05 -3.35974 
451 2 6.86242 14.7186 -27.123 1.70373e-05 -3.35974 
452 2 2.56414 8.50664 -27.7938 1.63248e-05 -3.35976 
453 2 7.724 1.62673 -27.7936 1.58865e-05 -3.35975 
454 2 1.99046 18.8258 -27.7935 1.56608e-05 -3.35975 
455 2 -0.302468 17.106 -27.7934 1.55186e-05 -3.35975 
456 2 4.85712 10.2266 -27.7937 1.60911e-05 -3.35976 
457 2 0.271181 6.78666 -27.7939 1.64204e-05 -3.35976 
458 2 12.3098 5.06667 -27.7938 1.63431e-05 -3.35975 
459 2 10.0169 3.34668 -27.7938 1.61386e-05 -3.35975 
460 2 -2.59543 15.3861 -27.7934 1.5494e-05 -3.35976 
461 2 9.44311 13.6663 -27.7934 1.55991e-05 -3.35976 
462 2 7.15012 11.9465 -27.7935 1.58171e-05 -3.35976 
463 2 2.85185 5.73434 -28.4643 1.48567e-05 -3.35977 
464 2 4.5711 17.7736 -28.4639 1.41247e-05 -3.35977 
465 2 2.27816 16.0538 -28.4639 1.4081e-05 -3.35977 
466 2 -0.014812 14.3339 -28.4639 1.41505e-05 -3.35977 
467 2 5.14479 7.45432 -28.4642 1.4846e-05 -3.35977 
468 2 0.558934 4.01436 -28.4642 1.47263e-05 -3.35977 
469 2 12.5976 2.2944 -28.4641 1.45052e-05 -3.35977 
470 2 10.3047 0.57448 -28.464 1.42796e-05 -3.35977 
471 2 12.0237 12.6141 -28.4639 1.43074e-05 -3.35977 
472 2 9.73073 10.8942 -28.464 1.4511e-05 -3.35977 
473 2 7.43775 9.17428 -28.4642 1.4711e-05 -3.35977 
474 2 3.13952 2.9622 -29.1347 1.32778e-05 -3.35978 
475 2 4.85869 15.0016 -29.1344 1.28285e-05 -3.35979 
476 2 2.56571 13.2818 -29.1345 1.29456e-05 -3.35979 
477 2 0.272725 11.5619 -29.1346 1.31229e-05 -3.35979 
478 2 5.43243 4.68215 -29.1348 1.34207e-05 -3.35978 
479 2 0.846613 1.24226 -29.1346 1.3086e-05 -3.35978 
480 2 9.44458 18.4414 -29.1345 1.29114e-05 -3.35978 
481 2 7.15165 16.7215 -29.1344 1.28147e-05 -3.35978 
482 2 12.3113 9.84202 -29.1347 1.33006e-05 -3.35979 
483 2 10.0183 8.12209 -29.1347 1.34277e-05 -3.35979 
484 2 7.72535 6.40213 -29.1348 1.34729e-05 -3.35979 
485 2 3.4271 0.19024 -29.8052 1.18472e-05 -3.3598 
486 2 5.14616 12.2298 -29.8052 1.18785e-05 -3.3598 
487 2 2.85318 10.5099 -29.8053 1.20407e-05 -3.3598 
488 2 0.56021 8.78995 -29.8054 1.21786e-05 -3.3598 
489 2 5.72002 1.91015 -29.8053 1.19886e-05 -3.3598 
490 2 -2.30647 17.3894 -29.8051 1.17408e-05 -3.3598 
491 2 9.7321 15.6695 -29.8051 1.17033e-05 -3.3598 
492 2 7.43914 13.9496 -29.8051 1.17523e-05 -3.3598 
493 2 12.5988 7.07001 -29.8054 1.2243e-05 -3.3598 
494 2 10.3058 5.35004 -29.8054 1.22198e-05 -3.3598 
495 2 8.01293 3.63009 -29.8054 1.21251e-05 -3.3598 
496 2 0.273924 16.3374 -30.4759 1.07228e-05 -3.35981 
497 2 5.43357 9.45791 -30.4761 1.10571e-05 -3.35982 
498 2 3.14061 7.73798 -30.4762 1.11465e-05 -3.35981 
499 2 0.847672 6.01803 -30.4762 1.11623e-05 -3.35981 
500 2 2.56687 18.0573 -30.476 1.07658e-05 -3.35981 
501 2 -2.01904 14.6176 -30.4759 1.07405e-05 -3.35981 
502 2 10.0195 12.8977 -30.476 1.08155e-05 -3.35981 
503 2 7.72654 11.1778 -30.476 1.09318e-05 -3.35982 
504 2 12.8863 4.29808 -30.4761 1.10986e-05 -3.35981 
505 2 10.5934 2.57813 -30.4761 1.0984e-05 -3.35981 
506 2 8.30044 0.858215 -30.476 1.08608e-05 -3.35981 
507 2 0.56128 13.5657 -31.1469 9.89073e-06 -3.35983 
508 2 5.72096 6.6861 -31.147 1.02038e-05 -3.35983 
509 2 3.42802 4.96615 -31.147 1.01848e-05 -3.35983 
510 2 1.1351 3.24621 -31.147 1.01068e-05 -3.35983 
511 2 2.85424 15.2856 -31.1468 9.83561e-06 -3.35983 
512 2 -1.73169 11.8459 -31.1469 9.98081e-06 -3.35983 
513 2 10.3069 10.126 -31.147 1.00801e-05 -3.35983 
514 2 8.0139 8.40604 -31.147 1.01627e-05 -3.35983 
515 2 13.1737 1.52628 -31.1469 9.99688e-06 -3.35983 
516 2 7.44013 18.7254 -31.1469 9.89494e-06 -3.35983 
517 2 5.1472 17.0055 -31.1468 9.83555e-06 -3.35983 
518 2 0.848569 10.7941 -31.818 9.22852e-06 -3.35984 
519 2 6.00831 3.91436 -31.818 9.30815e-06 -3.35984 
520 2 3.71539 2.19443 -31.818 9.23235e-06 -3.35984 
521 2 1.42246 0.474524 -31.8179 9.14501e-06 -3.35984 
522 2 3.14154 12.514 -31.8179 9.1391e-06 -3.35984 
523 2 -1.44439 9.07417 -31.818 9.30661e-06 -3.35984 
524 2 10.5942 7.35424 -31.818 9.35061e-06 -3.35984 
525 2 8.30124 5.6343 -31.818 9.35095e-06 -3.35984 
526 2 10.0204 17.6736 -31.8179 9.07435e-06 -3.35984 
527 2 7.72746 15.9537 -31.8178 9.0453e-06 -3.35984 
528 2 5.4345 14.2339 -31.8179 9.06952e-06 -3.35984 
529 2 1.13582 8.02246 -32.4891 8.60408e-06 -3.35985 
530 2 6.29561 1.14274 -32.489 8.4661e-06 -3.35985 
531 2 0.562036 18.3418 -32.489 8.40635e-06 -3.35985 
532 2 -1.73091 16.622 -32.489 8.37058e-06 -3.35985 
533 2 3.42878 9.74238 -32.4891 8.55003e-06 -3.35985 
534 2 13.1744 6.30252 -32.4891 8.61805e-06 -3.35985 
535 2 10.8815 4.58259 -32.4891 8.59034e-06 -3.35985 
536 2 8.58854 2.86266 -32.4891 8.53363e-06 -3.35985 
537 2 10.3077 14.9021 -32.489 8.37005e-06 -3.35985 
538 2 8.0147 13.1822 -32.489 8.40794e-06 -3.35985 
539 2 5.72174 11.4623 -32.4891 8.47533e-06 -3.35985 
540 2 1.42305 5.25088 -33.1604 7.96105e-06 -3.35986 
541 2 3.1422 17.2902 -33.1602 7.76717e-06 -3.35986 
542 2 0.84925 15.5703 -33.1602 7.76011e-06 -3.35986 
543 2 -1.44371 13.8505 -33.1603 7.78262e-06 -3.35986 
544 2 3.71599 6.97081 -33.1604 7.96773e-06 -3.35986 
545 2 13.4616 3.53095 -33.1603 7.91996e-06 -3.35986 
546 2 11.1687 1.81103 -33.1603 7.86043e-06 -3.35986 
547 2 8.87578 0.0911242 -33.1603 7.80365e-06 -3.35986 
548 2 10.5949 12.1306 -33.1603 7.82822e-06 -3.35986 
549 2 8.30189 10.4107 -33.1603 7.88552e-06 -3.35986 
550 2 6.00894 8.69074 -33.1603 7.93827e-06 -3.35986 
551 2 1.71025 2.47938 -33.8317 7.33086e-06 -3.35987 
552 2 3.42936 14.5188 -33.8316 7.22889e-06 -3.35987 
553 2 1.1364 12.7989 -33.8316 7.26432e-06 -3.35987 
554 2 -1.15656 11.079 -33.8317 7.31146e-06 -3.35987 
555 2 4.00318 4.1993 -33.8317 7.3735e-06 -3.35987 
556 2 13.7488 0.759471 -33.8316 7.27922e-06 -3.35987 
557 2 8.01525 17.9586 -33.8316 7.23665e-06 -3.35987 
558 2 5.72231 16.2387 -33.8316 7.21795e-06 -3.35987 
559 2 10.882 9.35908 -33.8317 7.35605e-06 -3.35987 
560 2 8.58906 7.63916 -33.8317 7.38626e-06 -3.35987 
561 2 6.29612 5.91923 -33.8317 7.39342e-06 -3.35987 
562 2 -1.44325 18.627 -34.5031 6.77523e-06 -3.35988 
563 2 3.71647 11.7474 -34.5031 6.80396e-06 -3.35988 
564 2 1.42351 10.0275 -34.5031 6.84599e-06 -3.35988 
565 2 -0.869437 8.30756 -34.5031 6.87733e-06 -3.35988 
566 2 4.29033 1.42787 -34.5031 6.81277e-06 -3.35988 
567 2 10.5953 16.9071 -34.5031 6.74989e-06 -3.35988 
568 2 8.30238 15.1872 -34.5031 6.74592e-06 -3.35988 
569 2 6.00943 13.4673 -34.5031 6.76604e-06 -3.35988 
570 2 11.1691 6.58763 -34.5032 6.88878e-06 -3.35988 