ITEM: TIMESTEP
0
ITEM: NUMBER OF ATOMS
3298
ITEM: BOX BOUNDS xy xz yz pp pp ff
-3.4458760531762711e+00 1.4327054085972705e+01 -3.4377342862312590e+00
-8.0242236836049839e-03 1.8908988484799963e+01 0.0000000000000000e+00
-1.2150000000000000e+02 1.2150000000000000e+02 0.0000000000000000e+00
ITEM: ATOMS id type x y z c_csym c_eng 
1 2 11.553 8.45403 0.155858 3.3512 -3.32366 
2 2 2.1699 1.84338 0.0715305 5.71543 -3.3816 
3 2 14.2384 0.155263 0.0816361 5.64606 -3.38602 
4 2 8.55749 17.3134 0.0642719 5.29197 -3.37126 
5 2 -0.523398 10.1884 0.131464 5.88231 -3.34049 
6 2 9.13135 6.87611 0.0941653 5.57445 -3.36569 
7 2 6.81719 5.15735 0.0836437 5.5978 -3.3587 
8 2 4.47282 3.50703 0.0660113 5.61079 -3.37355 
9 2 6.30923 15.528 0.0716898 5.88557 -3.35798 
10 2 4.03904 13.7172 0.121443 5.6929 -3.35443 
11 2 1.74367 11.9619 0.119404 5.93555 -3.35381 
12 2 11.5269 6.09502 -1.23218 2.83511 -3.28583 
13 2 -1.13897 18.2148 -1.16364 2.43001 -3.30553 
14 2 10.9177 16.4926 -1.15175 2.22455 -3.26583 
15 2 8.67172 14.6883 -1.07726 1.47856 -3.33051 
16 2 -0.505543 7.78254 -1.24894 3.17696 -3.28074 
17 2 9.23854 4.41617 -1.21311 2.44782 -3.29958 
18 2 6.93405 2.7149 -1.20992 2.51385 -3.29618 
19 2 4.61492 1.02024 -1.19748 2.58054 -3.29108 
20 2 6.36424 12.9897 -1.15918 2.50385 -3.25233 
21 2 4.06531 11.2444 -1.19961 3.00404 -3.28058 
22 2 1.76963 9.50777 -1.23136 2.99609 -3.27376 
23 2 11.9026 3.30045 -1.86901 0.192453 -3.30232 
24 2 -0.746167 15.4094 -1.72817 2.67841 -3.29323 
25 2 11.2487 13.6492 -1.73644 4.1151 -3.28791 
26 2 8.92259 11.8635 -1.72734 2.51475 -3.28798 
27 2 -0.190327 4.95846 -1.87251 0.151271 -3.30612 
28 2 9.64875 1.62612 -1.8437 0.386915 -3.31163 
29 2 3.93335 18.8478 -1.79176 0.79329 -3.31961 
30 2 1.60398 17.1355 -1.76575 1.60757 -3.31098 
31 2 6.60797 10.0707 -1.71379 1.16262 -3.32272 
32 2 4.3134 8.33863 -1.81149 0.566748 -3.31539 
33 2 2.05369 6.6379 -1.85907 0.283312 -3.30734 
34 2 12.2145 0.365784 -2.27801 0.937803 -3.35193 
35 2 -0.436415 12.4873 -1.96658 5.50738 -3.38728 
36 2 11.6379 10.7866 -1.97067 5.60576 -3.38787 
37 2 9.36628 9.05758 -1.96506 5.51358 -3.39624 
38 2 0.19407 2.09934 -2.30665 0.810045 -3.35146 
39 2 6.45318 17.5742 -2.20899 1.24491 -3.35751 
40 2 4.13947 15.8599 -2.08613 2.29822 -3.37601 
41 2 1.82255 14.1713 -1.99052 5.34042 -3.38308 
42 2 7.1028 7.31422 -2.14168 1.81927 -3.34969 
43 2 4.81313 5.56508 -2.24189 1.20648 -3.35339 
44 2 2.50758 3.82828 -2.30173 0.885912 -3.34874 
45 2 8.99265 16.615 -3.06182 0.456138 -3.31934 
46 2 -0.229302 9.82111 -3.06214 1.17323 -3.32364 
47 2 11.8279 8.10932 -3.07524 1.25108 -3.32676 
48 2 9.55744 6.38698 -3.0863 0.861853 -3.30745 
49 2 -3.03925 18.3548 -3.10906 0.577003 -3.30388 
50 2 6.70263 14.9211 -3.03622 0.545301 -3.31927 
51 2 4.37637 13.2259 -3.04507 0.901406 -3.32023 
52 2 2.06676 11.5291 -3.04802 1.03941 -3.31845 
53 2 7.28834 4.63825 -3.10899 0.688173 -3.31472 
54 2 4.99985 2.89807 -3.12669 0.614338 -3.30794 
55 2 2.69835 1.16428 -3.12291 0.584501 -3.30767 
56 2 9.31318 13.8044 -3.69736 0.0481786 -3.3297 
57 2 0.122351 6.96056 -3.8049 0.0609951 -3.33222 
58 2 12.1795 5.25861 -3.80511 0.0476287 -3.33211 
59 2 9.90492 3.54457 -3.79688 0.0438189 -3.3355 
60 2 -2.70327 15.5377 -3.71629 0.0754973 -3.33363 
61 2 7.00523 12.0753 -3.7034 0.0668349 -3.33672 
62 2 4.71093 10.3707 -3.73615 0.0682619 -3.33735 
63 2 2.40885 8.66743 -3.77999 0.0646119 -3.33353 
64 2 7.62808 1.81315 -3.78039 0.0525178 -3.33554 
65 2 5.34261 0.0833373 -3.75594 0.0661032 -3.33709 
66 2 -0.394852 17.2692 -3.73 0.0721434 -3.33457 
67 2 9.66446 10.9828 -4.23887 0.4097 -3.35683 
68 2 0.477618 4.12165 -4.38972 0.108874 -3.36053 
69 2 12.5205 2.40124 -4.38236 0.112981 -3.36035 
70 2 10.2288 0.680769 -4.35655 0.135453 -3.36021 
71 2 11.9569 12.7002 -4.23392 0.42457 -3.35491 
72 2 7.37138 9.27509 -4.25117 0.33362 -3.35714 
73 2 5.06818 7.55979 -4.32766 0.195921 -3.36106 
74 2 2.77271 5.84107 -4.37364 0.137763 -3.36102 
75 2 4.49784 17.8693 -4.30695 0.206698 -3.35719 
76 2 2.2111 16.141 -4.26502 0.327043 -3.35441 
77 2 -0.0833326 14.4211 -4.23187 0.408768 -3.35436 
78 2 9.89655 8.29978 -5.02511 0.221251 -3.32201 
79 2 0.74101 1.37479 -5.08075 0.0570049 -3.32826 
80 2 9.33974 18.5652 -5.05725 0.0511736 -3.33252 
81 2 7.04366 16.8504 -5.02149 0.0518572 -3.3309 
82 2 12.1882 10.014 -5.02449 0.218133 -3.31916 
83 2 7.61389 6.57342 -5.04117 0.115451 -3.32698 
84 2 5.32907 4.8366 -5.06702 0.0753261 -3.32943 
85 2 3.03719 3.10266 -5.08332 0.0606572 -3.32976 
86 2 4.74593 15.1438 -5.00015 0.104251 -3.33206 
87 2 2.44168 13.4373 -4.99964 0.173607 -3.32387 
88 2 0.146013 11.7283 -5.00914 0.202151 -3.32174 
89 2 10.2016 5.50062 -5.73424 0.0132316 -3.35017 
90 2 -2.39041 17.4956 -5.70596 0.00805942 -3.36022 
91 2 9.64488 15.7756 -5.68532 0.0061784 -3.35997 
92 2 7.34587 14.0625 -5.67283 0.00843646 -3.35865 
93 2 12.4905 7.2209 -5.73243 0.0151714 -3.3472 
94 2 7.91806 3.77036 -5.73521 0.0101856 -3.35457 
95 2 5.63294 2.03504 -5.73214 0.00904006 -3.35711 
96 2 3.34237 0.303772 -5.72051 0.0081775 -3.36005 
97 2 5.04814 12.3556 -5.67962 0.0138757 -3.35416 
98 2 2.74941 10.6489 -5.69756 0.0167077 -3.35223 
99 2 0.450011 8.93745 -5.71967 0.0163096 -3.34907 
100 2 10.5185 2.67939 -6.37947 0.0143297 -3.35998 
101 2 -2.08271 14.6971 -6.30547 0.043674 -3.3654 
102 2 9.9554 12.9826 -6.29898 0.0414393 -3.36658 
103 2 7.661 11.2705 -6.30372 0.039156 -3.36111 
104 2 12.8091 4.40443 -6.38737 0.0130451 -3.35815 
105 2 8.2291 0.948636 -6.36041 0.0197718 -3.36223 
106 2 2.50203 18.1372 -6.33739 0.0291446 -3.36269 
107 2 0.211014 16.4145 -6.3169 0.0392078 -3.36476 
108 2 5.36858 9.56003 -6.32571 0.0327657 -3.36008 
109 2 3.06701 7.84577 -6.36233 0.0188315 -3.3573 
110 2 0.768838 6.12616 -6.38375 0.0144204 -3.35701 
111 2 7.36964 18.813 -7.02656 0.00301171 -3.34654 
112 2 -1.81351 11.9573 -7.00177 0.0222952 -3.33833 
113 2 10.2254 10.241 -7.00732 0.0231463 -3.33726 
114 2 7.93297 8.52155 -7.0102 0.0185392 -3.34135 
115 2 13.1003 1.61931 -7.04394 0.00277921 -3.34647 
116 2 5.07723 17.0955 -7.00675 0.00549351 -3.34611 
117 2 2.78215 15.3823 -6.99776 0.0116468 -3.3431 
118 2 0.483894 13.6708 -6.996 0.0192608 -3.34048 
119 2 5.6449 6.7967 -7.02711 0.00779542 -3.3437 
120 2 3.35349 5.07025 -7.04426 0.00421071 -3.34507 
121 2 1.05933 3.34453 -7.05052 0.00305113 -3.3456 
122 2 7.66572 16.031 -7.67395 0.00158147 -3.36125 
123 2 -1.52203 9.18305 -7.686 0.00283899 -3.35837 
124 2 10.5178 7.46403 -7.69055 0.00333934 -3.35887 
125 2 8.22913 5.73758 -7.70005 0.00281185 -3.35906 
126 2 9.96118 17.7471 -7.69106 0.00227756 -3.3602 
127 2 5.36975 14.3202 -7.66323 0.00184492 -3.36181 
128 2 3.07259 12.6109 -7.66391 0.00292479 -3.36111 
129 2 0.775219 10.8992 -7.6743 0.0031038 -3.35953 
130 2 5.94136 4.00708 -7.70842 0.00272349 -3.35937 
131 2 3.65119 2.27744 -7.71044 0.00287845 -3.35924 
132 2 1.3585 0.551769 -7.70459 0.00288788 -3.35953 
133 2 7.96324 13.2522 -8.31844 0.00432985 -3.36151 
134 2 13.1138 6.39035 -8.36461 0.00214434 -3.35946 
135 2 10.8209 4.66678 -8.3653 0.00219461 -3.35906 
136 2 8.53099 2.93887 -8.361 0.00251203 -3.35972 
137 2 10.259 14.9658 -8.32334 0.00513458 -3.36179 
138 2 5.66829 11.5403 -8.32337 0.00344733 -3.36076 
139 2 3.37303 9.82769 -8.33786 0.00275427 -3.36144 
140 2 1.07518 8.11095 -8.35523 0.00215005 -3.36013 
141 2 6.24157 1.21059 -8.35316 0.00331685 -3.36016 
142 2 0.512805 18.4028 -8.34297 0.00446721 -3.36071 
143 2 -1.78057 16.6825 -8.33302 0.00527022 -3.36093 
144 2 8.2485 10.4866 -8.99527 0.00173343 -3.35177 
145 2 13.4101 3.60106 -9.02852 0.000354976 -3.35416 
146 2 11.1175 1.87693 -9.02235 0.000436619 -3.35464 
147 2 8.82602 0.153845 -9.0114 0.000532221 -3.35465 
148 2 10.5439 12.2034 -8.99336 0.00207383 -3.35208 
149 2 5.95576 8.76821 -9.00322 0.00103696 -3.35273 
150 2 3.66317 7.04735 -9.01693 0.000406315 -3.35378 
151 2 1.36901 5.32467 -9.02695 0.000347985 -3.35396 
152 2 3.09633 17.3509 -9.00134 0.000814858 -3.3542 
153 2 0.801891 15.6339 -8.99539 0.00138948 -3.35326 
154 2 -1.49441 13.9186 -8.99341 0.00188162 -3.35216 
155 2 8.54064 7.71016 -9.67694 0.001114 -3.35864 
156 2 13.7054 0.814601 -9.68553 0.00065501 -3.35846 
157 2 7.97423 18.0105 -9.67571 0.000587281 -3.35866 
158 2 5.6811 16.2925 -9.66592 0.000676195 -3.35909 
159 2 10.8345 9.4297 -9.67345 0.00116188 -3.35866 
160 2 6.2488 5.98718 -9.68366 0.000880694 -3.35804 
161 2 3.95673 4.26231 -9.68957 0.000738991 -3.35812 
162 2 1.6637 2.53778 -9.6906 0.00069516 -3.35826 
163 2 3.38735 14.5769 -9.66186 0.000911891 -3.35941 
164 2 1.09204 12.8627 -9.66351 0.00113475 -3.35964 
165 2 -1.20444 11.1473 -9.6689 0.00118998 -3.35915 
166 2 8.83499 4.92481 -10.3479 0.000835819 -3.35849 
167 2 10.5631 16.9499 -10.334 0.00109754 -3.35874 
168 2 8.26862 15.2328 -10.3267 0.000940535 -3.35919 
169 2 5.97422 13.5177 -10.3231 0.000866227 -3.35957 
170 2 11.1273 6.64849 -10.3458 0.000908618 -3.35881 
171 2 6.54392 3.19955 -10.3482 0.000874751 -3.35833 
172 2 4.25239 1.47497 -10.3458 0.00101222 -3.35828 
173 2 -1.47809 18.6697 -10.341 0.00112808 -3.35833 
174 2 3.67947 11.8033 -10.3261 0.00088768 -3.35959 
175 2 1.38381 10.0875 -10.3342 0.000894262 -3.35952 
176 2 -0.912587 8.3692 -10.3422 0.0008791 -3.3589 
177 2 9.12926 2.14048 -11.0086 0.000484852 -3.3575 
178 2 10.8528 14.1789 -10.9917 0.000531255 -3.35709 
179 2 8.5575 12.4623 -10.9903 0.00049785 -3.357 
180 2 6.26323 10.7456 -10.9925 0.00043776 -3.35679 
181 2 11.4215 3.86395 -11.0124 0.000525175 -3.35727 
182 2 6.8375 0.41783 -11.0033 0.00047303 -3.35751 
183 2 1.10712 17.6143 -10.9984 0.00050245 -3.35749 
184 2 -1.18709 15.8959 -10.9946 0.000530314 -3.35723 
185 2 3.96932 9.02778 -10.9995 0.000411283 -3.35699 
186 2 1.67478 7.30805 -11.0078 0.000474435 -3.35719 
187 2 -0.620052 5.58664 -11.0126 0.000528027 -3.35712 
188 2 5.98388 18.2782 -11.6663 0.000364344 -3.35844 
189 2 11.1416 11.4078 -11.6617 0.000501745 -3.35892 
190 2 8.84665 9.68971 -11.6635 0.000501837 -3.35855 
191 2 6.55311 7.97015 -11.6672 0.000477245 -3.35829 
192 2 11.7144 1.08207 -11.6723 0.000396806 -3.35817 
193 2 3.69102 16.5591 -11.6615 0.000373689 -3.35877 
194 2 1.39716 14.8416 -11.6596 0.000422429 -3.35897 
195 2 -0.897915 13.1249 -11.6602 0.00047612 -3.35897 
196 2 4.25994 6.24889 -11.6726 0.00044029 -3.35801 
197 2 1.96634 4.52661 -11.6764 0.000441513 -3.35793 
198 2 -0.327415 2.80414 -11.6763 0.000432545 -3.35798 
199 2 6.27545 15.5028 -12.3252 0.000384924 -3.35884 
200 2 11.4317 8.6323 -12.3333 0.00047349 -3.35825 
201 2 9.13748 6.91196 -12.3353 0.000469564 -3.35835 
202 2 6.8445 5.19007 -12.3372 0.000446449 -3.35845 
203 2 8.56901 17.2211 -12.3295 0.000391151 -3.35878 
204 2 3.98173 13.7856 -12.3239 0.000411717 -3.35874 
205 2 1.68724 12.0688 -12.3261 0.000446255 -3.35864 
206 2 -0.608114 10.3512 -12.3301 0.000468137 -3.35848 
207 2 4.55182 3.46742 -12.3384 0.00043691 -3.35854 
208 2 2.25877 1.74516 -12.3376 0.000437066 -3.35859 
209 2 14.3004 0.0239575 -12.3344 0.000423178 -3.35868 
210 2 6.56482 12.7305 -12.9893 0.000321825 -3.35849 
211 2 11.7221 5.85419 -13.002 0.00039416 -3.35857 
212 2 9.4287 4.13236 -13.0019 0.000369841 -3.35839 
213 2 7.13606 2.41015 -13.0005 0.00034518 -3.35829 
214 2 8.85899 14.4481 -12.9903 0.00030356 -3.35835 
215 2 4.27078 11.013 -12.9914 0.00034745 -3.3586 
216 2 1.97633 9.29461 -12.9958 0.000368956 -3.35865 
217 2 -0.318547 7.57499 -13.0001 0.000391737 -3.3586 
218 2 4.84338 0.688582 -12.9983 0.000330572 -3.35824 
219 2 -0.887702 17.8853 -12.9958 0.000321593 -3.35822 
220 2 11.1534 16.1662 -12.9929 0.000308755 -3.35825 
221 2 6.85328 9.95792 -13.659 0.000294063 -3.35864 
222 2 12.0128 3.07567 -13.667 0.000303405 -3.35849 
223 2 9.71956 1.3543 -13.6645 0.000272096 -3.35859 
224 2 3.98891 18.5507 -13.6615 0.000248625 -3.35869 
225 2 9.14743 11.6765 -13.6577 0.000282382 -3.35879 
226 2 4.5595 8.23854 -13.6621 0.000301939 -3.35856 
227 2 2.26554 6.51819 -13.6657 0.000314633 -3.35849 
228 2 -0.0285993 4.79711 -13.6676 0.000321227 -3.35844 
229 2 1.69567 16.8311 -13.6592 0.000243305 -3.3588 
230 2 -0.598367 15.1126 -13.6581 0.000252224 -3.35884 
231 2 11.4421 13.3946 -13.6576 0.000267227 -3.35886 
232 2 7.14229 7.18284 -14.3291 0.000274833 -3.35883 
233 2 12.3032 0.298906 -14.3292 0.000239953 -3.35885 
234 2 6.572 17.496 -14.3262 0.000221159 -3.35892 
235 2 4.27859 15.7769 -14.324 0.000218393 -3.35899 
236 2 9.43612 8.90288 -14.3276 0.000273379 -3.35888 
237 2 4.84884 5.46198 -14.3309 0.000272723 -3.35879 
238 2 2.55532 3.74073 -14.332 0.000271027 -3.35878 
239 2 0.261634 2.01959 -14.3314 0.000260916 -3.35879 
240 2 1.98479 14.0586 -14.3236 0.000229993 -3.35902 
241 2 -0.309675 12.3405 -14.3248 0.000248216 -3.35901 
242 2 11.7307 10.6221 -14.3263 0.000264174 -3.35897 
243 2 7.43166 4.4065 -14.9963 0.000231116 -3.35883 
244 2 9.15491 16.442 -14.9915 0.000187101 -3.35887 
245 2 6.86107 14.7232 -14.9898 0.000186874 -3.3589 
246 2 4.56725 13.0048 -14.9895 0.000197372 -3.3589 
247 2 9.72514 6.12746 -14.9961 0.000238972 -3.35883 
248 2 5.13844 2.68537 -14.9961 0.000220909 -3.35882 
249 2 2.84506 0.964595 -14.9952 0.000210485 -3.35882 
250 2 -2.88639 18.1615 -14.9936 0.000198127 -3.35884 
251 2 2.27316 11.2863 -14.9911 0.000213196 -3.35891 
252 2 -0.0213513 9.56745 -14.9935 0.00022982 -3.35889 
253 2 12.0192 7.84782 -14.9953 0.000239515 -3.35884 
254 2 7.72088 1.6311 -15.6611 0.000175014 -3.35893 
255 2 9.44316 13.6702 -15.6569 0.000157282 -3.35903 
256 2 7.14907 11.9515 -15.6568 0.000167093 -3.35904 
257 2 4.85514 10.2325 -15.658 0.000179261 -3.35903 
258 2 10.0142 3.35186 -15.6623 0.000190718 -3.35894 
259 2 1.98984 18.8278 -15.6598 0.000162178 -3.35895 
260 2 -0.303776 17.1081 -15.6586 0.000155187 -3.35897 
261 2 -2.59782 15.389 -15.6576 0.000153477 -3.359 
262 2 2.56111 8.51314 -15.6601 0.000192131 -3.35902 
263 2 0.266884 6.79315 -15.6621 0.000202724 -3.35899 
264 2 12.3079 5.07266 -15.6628 0.000202303 -3.35897 
265 2 4.57187 17.7745 -16.3255 0.000135159 -3.35914 
266 2 9.73091 10.8983 -16.325 0.000150819 -3.35918 
267 2 7.43685 9.17898 -16.3258 0.000158496 -3.35915 
268 2 5.14303 7.45915 -16.3271 0.000164751 -3.35912 
269 2 10.3031 0.57742 -16.327 0.000146401 -3.3591 
270 2 2.27829 16.0551 -16.3245 0.000131472 -3.35917 
271 2 -0.0156456 14.3362 -16.3243 0.000134953 -3.35919 
272 2 12.0253 12.6173 -16.3246 0.000142442 -3.3592 
273 2 2.84923 5.73887 -16.3284 0.000169919 -3.35909 
274 2 0.555332 4.01834 -16.329 0.000169887 -3.35907 
275 2 12.5967 2.29778 -16.3285 0.000160674 -3.35908 
276 2 4.85997 15.0024 -16.9912 0.000113393 -3.35922 
277 2 10.0186 8.12554 -16.9938 0.000141172 -3.35922 
278 2 7.72476 6.40547 -16.9944 0.000142898 -3.3592 
279 2 5.43112 4.68507 -16.9948 0.000142256 -3.35918 
280 2 7.15367 16.7216 -16.992 0.000115153 -3.3592 
281 2 2.56614 13.2834 -16.9912 0.00011798 -3.35924 
282 2 0.272005 11.5644 -16.9921 0.000126792 -3.35925 
283 2 12.3129 9.84519 -16.9931 0.000135713 -3.35924 
284 2 3.13749 2.96459 -16.995 0.000139267 -3.35917 
285 2 0.843752 1.24426 -16.9945 0.000132683 -3.35917 
286 2 9.44742 18.4413 -16.9934 0.000123093 -3.35918 
287 2 5.14745 12.2309 -17.6587 0.000101313 -3.35929 
288 2 10.3064 5.35217 -17.6619 0.0001229 -3.35926 
289 2 8.01272 3.63182 -17.6617 0.000118557 -3.35925 
290 2 5.71916 1.91149 -17.6613 0.000112434 -3.35924 
291 2 7.44133 13.95 -17.6586 9.69137e-05 -3.35929 
292 2 2.85351 10.5117 -17.6596 0.000109026 -3.35929 
293 2 0.55939 8.79218 -17.6608 0.000117817 -3.35929 
294 2 12.6004 7.07233 -17.6617 0.000123233 -3.35927 
295 2 3.42554 0.191407 -17.6607 0.000106261 -3.35924 
296 2 -2.306 17.3887 -17.66 0.000100766 -3.35926 
297 2 9.73525 15.6692 -17.6592 9.69495e-05 -3.35927 
298 2 5.43465 9.45912 -18.3276 9.56216e-05 -3.35939 
299 2 10.5942 2.579 -18.3291 0.000100421 -3.35935 
300 2 8.30053 0.858883 -18.3283 9.33175e-05 -3.35935 
301 2 2.56919 18.056 -18.3276 8.75031e-05 -3.35936 
302 2 7.72856 11.1786 -18.327 9.03267e-05 -3.35939 
303 2 3.14075 7.73939 -18.3285 0.000101658 -3.35938 
304 2 0.846778 6.0194 -18.3293 0.000106102 -3.35936 
305 2 12.888 4.29923 -18.3295 0.000105657 -3.35935 
306 2 0.275433 16.3365 -18.3272 8.46424e-05 -3.35937 
307 2 -2.01854 14.6171 -18.3269 8.45613e-05 -3.35939 
308 2 10.0226 12.8979 -18.3268 8.65318e-05 -3.3594 
309 2 5.72185 6.68682 -18.9965 8.90217e-05 -3.35945 
310 2 7.44404 18.7236 -18.9959 7.98924e-05 -3.35943 
311 2 5.15032 17.0039 -18.9952 7.50921e-05 -3.35944 
312 2 2.85657 15.2845 -18.9949 7.35419e-05 -3.35945 
313 2 8.01569 8.40671 -18.996 8.62839e-05 -3.35946 
314 2 3.42805 4.96675 -18.9969 9.07966e-05 -3.35944 
315 2 1.13422 3.24662 -18.997 9.00456e-05 -3.35943 
316 2 13.1756 1.52654 -18.9967 8.58858e-05 -3.35943 
317 2 0.56267 13.5651 -18.9949 7.53816e-05 -3.35946 
318 2 -1.73141 11.8458 -18.9953 7.91506e-05 -3.35947 
319 2 10.3097 10.1264 -18.9956 8.30158e-05 -3.35947 
320 2 6.00908 3.91442 -19.6648 7.78424e-05 -3.3595 
321 2 7.7313 15.9521 -19.6634 6.55904e-05 -3.3595 
322 2 5.43747 14.2326 -19.6631 6.4784e-05 -3.35951 
323 2 3.14361 12.5133 -19.6632 6.69573e-05 -3.35952 
324 2 8.30284 5.6345 -19.6648 7.86721e-05 -3.35951 
325 2 3.71535 2.19437 -19.6647 7.58788e-05 -3.35949 
326 2 1.42155 0.474429 -19.6644 7.27348e-05 -3.35949 
327 2 10.0252 17.6717 -19.6639 6.88138e-05 -3.3595 
328 2 0.849632 10.7938 -19.6637 7.12855e-05 -3.35952 
329 2 -1.44444 9.07425 -19.6643 7.56618e-05 -3.35952 
330 2 10.5967 7.35446 -19.6647 7.81673e-05 -3.35952 
331 2 6.29624 1.14244 -20.3329 6.47266e-05 -3.35956 
332 2 8.01823 13.181 -20.3319 5.87296e-05 -3.35958 
333 2 5.72434 11.4615 -20.332 6.05337e-05 -3.35958 
334 2 3.43044 9.74194 -20.3325 6.39964e-05 -3.35958 
335 2 8.58997 2.86239 -20.3332 6.76891e-05 -3.35956 
336 2 0.564751 18.3396 -20.3326 6.20177e-05 -3.35956 
337 2 -1.7291 16.62 -20.3323 5.9965e-05 -3.35957 
338 2 10.3122 14.9004 -20.3321 5.87123e-05 -3.35958 
339 2 1.13649 8.02224 -20.333 6.79242e-05 -3.35958 
340 2 13.1777 6.30238 -20.3334 7.02611e-05 -3.35958 
341 2 10.8838 4.58241 -20.3334 6.99413e-05 -3.35957 
342 2 3.1455 17.288 -21.0012 5.43661e-05 -3.35963 
343 2 8.305 10.4098 -21.0013 5.64268e-05 -3.35965 
344 2 6.0111 8.69017 -21.0016 5.85687e-05 -3.35965 
345 2 3.71723 6.97037 -21.0019 6.09947e-05 -3.35964 
346 2 8.877 0.0907342 -21.0016 5.67826e-05 -3.35963 
347 2 0.851674 15.5684 -21.0011 5.34056e-05 -3.35964 
348 2 -1.44225 13.8489 -21.0011 5.37601e-05 -3.35964 
349 2 10.599 12.1294 -21.0012 5.48507e-05 -3.35965 
350 2 1.42335 5.25047 -21.0022 6.26152e-05 -3.35964 
351 2 13.4646 3.53052 -21.0022 6.22313e-05 -3.35963 
352 2 11.1708 1.81059 -21.002 5.98785e-05 -3.35963 
353 2 3.43229 14.517 -21.6703 4.82987e-05 -3.35969 
354 2 8.59171 7.63849 -21.671 5.43584e-05 -3.3597 
355 2 6.29786 5.91864 -21.6711 5.52441e-05 -3.35969 
356 2 4.00404 4.19874 -21.6712 5.56226e-05 -3.35969 
357 2 5.72612 16.2366 -21.6704 4.88076e-05 -3.35968 
358 2 1.1384 12.7975 -21.6704 4.93708e-05 -3.35969 
359 2 -1.15556 11.0779 -21.6706 5.12927e-05 -3.3597 
360 2 10.8856 9.35825 -21.6708 5.30814e-05 -3.3597 
361 2 1.7102 2.47883 -21.6712 5.50198e-05 -3.35968 
362 2 13.7515 0.758976 -21.671 5.32132e-05 -3.35968 
363 2 8.01995 17.9562 -21.6707 5.07609e-05 -3.35968 
364 2 3.71892 11.7461 -22.34 4.54754e-05 -3.35974 
365 2 8.87843 4.86706 -22.3407 5.03811e-05 -3.35974 
366 2 6.58461 3.14718 -22.3406 4.97e-05 -3.35973 
367 2 4.2908 1.42732 -22.3405 4.86429e-05 -3.35973 
368 2 6.0128 13.4656 -22.3399 4.4435e-05 -3.35974 
369 2 1.42501 10.0264 -22.3402 4.74635e-05 -3.35974 
370 2 -0.868945 8.30672 -22.3405 4.94058e-05 -3.35975 
371 2 11.1723 6.58692 -22.3407 5.04079e-05 -3.35974 
372 2 -1.44077 18.6245 -22.3404 4.73179e-05 -3.35973 
373 2 10.6006 16.9048 -22.3402 4.58552e-05 -3.35973 
374 2 8.30667 15.1852 -22.34 4.46803e-05 -3.35974 
375 2 4.00547 8.97502 -23.0102 4.39123e-05 -3.35979 
376 2 9.16512 2.09576 -23.0104 4.49121e-05 -3.35978 
377 2 6.87131 0.375953 -23.0102 4.35476e-05 -3.35978 
378 2 1.13975 17.5732 -23.0101 4.24563e-05 -3.35978 
379 2 6.29936 10.6947 -23.01 4.24814e-05 -3.35979 
380 2 1.71158 7.25527 -23.0104 4.54755e-05 -3.35979 
381 2 -0.582334 5.53545 -23.0105 4.63328e-05 -3.35979 
382 2 11.459 3.8156 -23.0105 4.60474e-05 -3.35978 
383 2 -1.15412 15.8536 -23.01 4.18062e-05 -3.35978 
384 2 10.8872 14.134 -23.0099 4.1538e-05 -3.35979 
385 2 8.59325 12.4143 -23.0099 4.16943e-05 -3.35979 
386 2 4.29202 6.20389 -23.6805 4.16973e-05 -3.35983 
387 2 6.01402 18.2417 -23.6803 3.95211e-05 -3.35982 
388 2 3.72018 16.522 -23.6801 3.85705e-05 -3.35982 
389 2 1.42632 14.8024 -23.6801 3.83324e-05 -3.35982 
390 2 6.58588 7.92368 -23.6804 4.08729e-05 -3.35983 
391 2 1.99815 4.48407 -23.6806 4.21661e-05 -3.35982 
392 2 -0.295731 2.76425 -23.6806 4.18736e-05 -3.35982 
393 2 11.7456 1.04444 -23.6805 4.08293e-05 -3.35982 
394 2 -0.867577 13.0827 -23.6801 3.87123e-05 -3.35983 
395 2 11.1737 11.3631 -23.6802 3.93598e-05 -3.35983 
396 2 8.87977 9.64341 -23.6803 4.00704e-05 -3.35983 
397 2 4.57855 3.43279 -24.351 3.81984e-05 -3.35986 
398 2 6.30056 15.4708 -24.3506 3.54249e-05 -3.35986 
399 2 4.00669 13.7512 -24.3506 3.53227e-05 -3.35986 
400 2 1.71281 12.0315 -24.3506 3.59046e-05 -3.35986 
401 2 6.8724 5.1526 -24.351 3.8255e-05 -3.35986 
402 2 2.2847 1.71299 -24.3509 3.78235e-05 -3.35986 
403 2 14.326 -0.00677615 -24.3508 3.70785e-05 -3.35986 
404 2 8.59442 17.1905 -24.3507 3.61415e-05 -3.35986 
405 2 -0.581104 10.3119 -24.3508 3.68304e-05 -3.35987 
406 2 11.4602 8.59216 -24.3509 3.76255e-05 -3.35987 
407 2 9.16627 6.8724 -24.3509 3.80787e-05 -3.35986 
408 2 4.86507 0.661809 -25.0216 3.41435e-05 -3.35989 
409 2 6.58702 12.7001 -25.0214 3.28033e-05 -3.35989 
410 2 4.29314 10.9804 -25.0214 3.32853e-05 -3.3599 
411 2 1.99925 9.26068 -25.0215 3.41214e-05 -3.3599 
412 2 7.15891 2.38158 -25.0216 3.46663e-05 -3.35989 
413 2 -0.866526 17.8591 -25.0215 3.36286e-05 -3.35989 
414 2 11.1748 16.1394 -25.0214 3.31514e-05 -3.35989 
415 2 8.8809 14.4197 -25.0214 3.28077e-05 -3.35989 
416 2 -0.294653 7.54094 -25.0217 3.49004e-05 -3.3599 
417 2 11.7466 5.82117 -25.0217 3.52444e-05 -3.3599 
418 2 9.45276 4.10137 -25.0217 3.51011e-05 -3.35989 
419 2 1.7138 16.808 -25.6925 3.05376e-05 -3.35992 
420 2 6.87344 9.92924 -25.6925 3.09376e-05 -3.35992 
421 2 4.57956 8.20952 -25.6926 3.14719e-05 -3.35992 
422 2 2.28568 6.48976 -25.6927 3.2016e-05 -3.35992 
423 2 4.00766 18.5277 -25.6925 3.09449e-05 -3.35992 
424 2 -0.580073 15.0883 -25.6925 3.03859e-05 -3.35992 
425 2 11.4612 13.3686 -25.6925 3.04208e-05 -3.35992 
426 2 9.16733 11.6489 -25.6925 3.05905e-05 -3.35992 
427 2 -0.00820374 4.76999 -25.6927 3.22708e-05 -3.35992 
428 2 12.0331 3.05021 -25.6927 3.20729e-05 -3.35992 
429 2 9.73924 1.33043 -25.6926 3.15371e-05 -3.35992 
430 2 2.00022 14.0372 -26.3638 2.77832e-05 -3.35995 
431 2 7.15985 7.15839 -26.3639 2.896e-05 -3.35995 
432 2 4.86598 5.43863 -26.364 2.91787e-05 -3.35995 
433 2 2.57211 3.71885 -26.364 2.9257e-05 -3.35995 
434 2 4.29409 15.7569 -26.3638 2.77993e-05 -3.35994 
435 2 -0.293667 12.3175 -26.3638 2.80375e-05 -3.35995 
436 2 11.7476 10.5978 -26.3638 2.83841e-05 -3.35995 
437 2 9.45373 8.87813 -26.3639 2.86946e-05 -3.35995 
438 2 0.278237 1.99909 -26.3639 2.90776e-05 -3.35994 
439 2 12.3196 0.279337 -26.3639 2.86446e-05 -3.35994 
440 2 6.58796 17.4766 -26.3638 2.81359e-05 -3.35994 
441 2 2.28661 11.2665 -27.0354 2.56675e-05 -3.35997 
442 2 7.44626 4.38753 -27.0355 2.65034e-05 -3.35997 
443 2 5.15239 2.66776 -27.0355 2.63873e-05 -3.35997 
444 2 2.85853 0.948012 -27.0354 2.61907e-05 -3.35997 
445 2 4.58049 12.9862 -27.0353 2.53887e-05 -3.35997 
446 2 -0.00728521 9.54677 -27.0354 2.60683e-05 -3.35997 
447 2 12.034 7.82704 -27.0355 2.63881e-05 -3.35997 
448 2 9.74013 6.10729 -27.0355 2.65234e-05 -3.35997 
449 2 -2.87308 18.1453 -27.0354 2.59097e-05 -3.35997 
450 2 9.16824 16.4256 -27.0354 2.55931e-05 -3.35997 
451 2 6.87436 14.7059 -27.0353 2.53724e-05 -3.35997 
452 2 2.57298 8.49571 -27.7072 2.37283e-05 -3.35999 
453 2 7.73266 1.61671 -27.7072 2.37589e-05 -3.35998 
454 2 2.00106 18.814 -27.7072 2.35268e-05 -3.35998 
455 2 -0.292812 17.0943 -27.7072 2.33465e-05 -3.35998 
456 2 4.86686 10.2154 -27.7072 2.34148e-05 -3.35999 
457 2 0.279091 6.77597 -27.7073 2.40026e-05 -3.35999 
458 2 12.3204 5.05622 -27.7073 2.4096e-05 -3.35999 
459 2 10.0265 3.33646 -27.7073 2.39851e-05 -3.35999 
460 2 -2.58669 15.3745 -27.7072 2.3222e-05 -3.35999 
461 2 9.45462 13.6548 -27.7072 2.31604e-05 -3.35999 
462 2 7.16074 11.9351 -27.7072 2.32099e-05 -3.35999 
463 2 2.85934 5.72492 -28.3793 2.16309e-05 -3.36 
464 2 4.58131 17.763 -28.3792 2.1118e-05 -3.36 
465 2 2.28744 16.0432 -28.3792 2.09833e-05 -3.36 
466 2 -0.00644189 14.3235 -28.3792 2.09732e-05 -3.36 
467 2 5.15322 7.44466 -28.3793 2.14728e-05 -3.36 
468 2 0.565465 4.00517 -28.3793 2.16825e-05 -3.36 
469 2 12.6068 2.28542 -28.3793 2.15746e-05 -3.36 
470 2 10.3129 0.565676 -28.3793 2.1349e-05 -3.36 
471 2 12.0349 12.6038 -28.3792 2.10465e-05 -3.36 
472 2 9.74098 10.8841 -28.3792 2.1157e-05 -3.36 
473 2 7.4471 9.1644 -28.3792 2.12985e-05 -3.36 
474 2 3.14571 2.95414 -29.0516 1.93579e-05 -3.36001 
475 2 4.86767 14.9922 -29.0515 1.88325e-05 -3.36001 
476 2 2.57379 13.2725 -29.0515 1.88581e-05 -3.36001 
477 2 0.27991 11.5528 -29.0515 1.89882e-05 -3.36001 
478 2 5.43958 4.67389 -29.0516 1.9373e-05 -3.36001 
479 2 0.851834 1.2344 -29.0515 1.92687e-05 -3.36001 
480 2 9.45542 18.4317 -29.0515 1.91081e-05 -3.36001 
481 2 7.16154 16.712 -29.0515 1.89338e-05 -3.36001 
482 2 12.3212 9.8331 -29.0515 1.91455e-05 -3.36002 
483 2 10.0273 8.11337 -29.0515 1.92666e-05 -3.36002 
484 2 7.73345 6.39363 -29.0515 1.93391e-05 -3.36002 
485 2 3.43207 0.183394 -29.724 1.71099e-05 -3.36002 
486 2 5.15402 12.2215 -29.724 1.69039e-05 -3.36002 
487 2 2.86014 10.5018 -29.724 1.70197e-05 -3.36002 
488 2 0.566254 8.78209 -29.724 1.71714e-05 -3.36003 
489 2 5.72594 1.90313 -29.724 1.71969e-05 -3.36002 
490 2 -2.29954 17.3807 -29.724 1.70162e-05 -3.36002 
491 2 9.74177 15.661 -29.724 1.69264e-05 -3.36002 
492 2 7.44789 13.9412 -29.7239 1.68749e-05 -3.36002 
493 2 12.6076 7.06235 -29.724 1.72833e-05 -3.36003 
494 2 10.3137 5.34261 -29.724 1.7313e-05 -3.36003 
495 2 8.01981 3.62287 -29.724 1.72722e-05 -3.36002 
496 2 0.280679 16.3297 -30.3966 1.50793e-05 -3.36003 
497 2 5.44035 9.45081 -30.3967 1.518e-05 -3.36003 
498 2 3.14648 7.73108 -30.3967 1.52826e-05 -3.36003 
499 2 0.852597 6.01135 -30.3967 1.53649e-05 -3.36003 
500 2 2.57455 18.0494 -30.3967 1.5134e-05 -3.36003 
501 2 -2.0132 14.61 -30.3966 1.50592e-05 -3.36003 
502 2 10.0281 12.8903 -30.3966 1.50654e-05 -3.36003 
503 2 7.73423 11.1705 -30.3966 1.51027e-05 -3.36003 
504 2 12.8939 4.29161 -30.3967 1.53807e-05 -3.36003 
505 2 10.6 2.57187 -30.3967 1.53221e-05 -3.36003 
506 2 8.30616 0.852133 -30.3967 1.52239e-05 -3.36003 
507 2 0.567016 13.559 -31.0695 1.3323e-05 -3.36004 
508 2 5.72669 6.68009 -31.0695 1.3521e-05 -3.36004 
509 2 3.43281 4.96035 -31.0695 1.35564e-05 -3.36004 
510 2 1.13894 3.24062 -31.0696 1.35572e-05 -3.36004 
511 2 2.86089 15.2787 -31.0695 1.33094e-05 -3.36004 
512 2 -1.72687 11.8393 -31.0695 1.33688e-05 -3.36004 
513 2 10.3144 10.1196 -31.0695 1.34221e-05 -3.36004 
514 2 8.02057 8.39982 -31.0695 1.3473e-05 -3.36004 
515 2 13.1803 1.52088 -31.0695 1.3509e-05 -3.36004 
516 2 7.44864 18.7182 -31.0695 1.34259e-05 -3.36004 
517 2 5.15477 16.9984 -31.0695 1.33469e-05 -3.36004 
518 2 0.853346 10.7883 -31.7426 1.17832e-05 -3.36004 
519 2 6.01303 3.90937 -31.7426 1.18937e-05 -3.36004 
520 2 3.71915 2.18963 -31.7426 1.18737e-05 -3.36004 
521 2 1.42527 0.469899 -31.7426 1.18369e-05 -3.36004 
522 2 3.14723 12.508 -31.7426 1.17288e-05 -3.36004 
523 2 -1.44054 9.06857 -31.7426 1.18436e-05 -3.36004 
524 2 10.6008 7.34884 -31.7426 1.18844e-05 -3.36004 
525 2 8.3069 5.6291 -31.7426 1.18988e-05 -3.36004 
526 2 10.0289 17.6672 -31.7426 1.17846e-05 -3.36004 
527 2 7.73498 15.9475 -31.7426 1.17333e-05 -3.36004 
528 2 5.4411 14.2277 -31.7426 1.17092e-05 -3.36004 
529 2 1.13967 8.01759 -32.4158 1.03736e-05 -3.36005 
530 2 6.29936 1.13865 -32.4158 1.03503e-05 -3.36005 
531 2 0.567749 18.3359 -32.4158 1.03176e-05 -3.36005 
532 2 -1.72613 16.6162 -32.4158 1.02908e-05 -3.36005 
533 2 3.43355 9.73732 -32.4158 1.03238e-05 -3.36005 
534 2 13.181 6.29785 -32.4158 1.0407e-05 -3.36005 
535 2 10.8871 4.57812 -32.4158 1.04094e-05 -3.36005 
536 2 8.59323 2.85839 -32.4158 1.03852e-05 -3.36005 
537 2 10.3152 14.8965 -32.4158 1.02709e-05 -3.36005 
538 2 8.02131 13.1768 -32.4158 1.02647e-05 -3.36005 
539 2 5.72743 11.457 -32.4158 1.02821e-05 -3.36005 
540 2 1.426 5.24688 -33.0892 9.04791e-06 -3.36005 
541 2 3.14795 17.285 -33.0891 8.95574e-06 -3.36005 
542 2 0.854076 15.5652 -33.0891 8.9421e-06 -3.36005 
543 2 -1.4398 13.8455 -33.0891 8.94381e-06 -3.36005 
544 2 3.71988 6.96661 -33.0892 9.02765e-06 -3.36005 
545 2 13.4673 3.52715 -33.0892 9.04679e-06 -3.36005 
546 2 11.1734 1.80741 -33.0892 9.02211e-06 -3.36005 
547 2 8.87956 0.0876821 -33.0891 8.98589e-06 -3.36005 
548 2 10.6015 12.1258 -33.0891 8.95497e-06 -3.36005 
549 2 8.30763 10.4061 -33.0891 8.97316e-06 -3.36005 
550 2 6.01376 8.68634 -33.0892 8.99876e-06 -3.36005 
551 2 1.71233 2.47618 -33.7627 7.81281e-06 -3.36005 
552 2 3.43428 14.5143 -33.7627 7.7365e-06 -3.36005 
553 2 1.1404 12.7946 -33.7627 7.74624e-06 -3.36005 
554 2 -1.15348 11.0748 -33.7627 7.76644e-06 -3.36005 
555 2 4.0062 4.19591 -33.7627 7.81812e-06 -3.36005 
556 2 13.7536 0.756445 -33.7627 7.79472e-06 -3.36005 
557 2 8.02203 17.9537 -33.7627 7.76802e-06 -3.36005 
558 2 5.72815 16.234 -33.7627 7.74465e-06 -3.36005 
559 2 10.8878 9.3551 -33.7627 7.78714e-06 -3.36005 
560 2 8.59396 7.63537 -33.7627 7.80305e-06 -3.36005 
561 2 6.30008 5.91564 -33.7627 7.81363e-06 -3.36005 
562 2 -1.43909 18.6225 -34.4363 6.69789e-06 -3.36005 
563 2 3.7206 11.7436 -34.4363 6.67616e-06 -3.36005 
564 2 1.42672 10.0239 -34.4363 6.69541e-06 -3.36005 
565 2 -0.867161 8.30413 -34.4363 6.7152e-06 -3.36005 
566 2 4.29252 1.42521 -34.4363 6.71076e-06 -3.36005 
567 2 10.6022 16.9028 -34.4363 6.68319e-06 -3.36005 
568 2 8.30835 15.183 -34.4363 6.67047e-06 -3.36005 
569 2 6.01447 13.4633 -34.4363 6.66671e-06 -3.36005 
570 2 11.1742 6.5844 -34.4363 6.72692e-06 -3.36005 
571 2 8.88028 4.86467 -34.4363 6.72794e-06 -3.36005 