ITEM: TIMESTEP
0
ITEM: NUMBER OF ATOMS
3300
ITEM: BOX BOUNDS xy xz yz pp pp ff
-3.4578195617260641e+00 1.4326233952701768e+01 -3.4504979280519286e+00
-1.1190677490085522e-02 1.8912154938606609e+01 0.0000000000000000e+00
-1.2150000000000000e+02 1.2150000000000000e+02 0.0000000000000000e+00
ITEM: ATOMS id type x y z c_csym c_eng 
1 2 11.5042 8.52449 0.0510925 6.02454 -3.36357 
2 2 2.3345 1.64328 0.0510925 6.02454 -3.36357 
3 2 -3.40841 18.8463 0.0510925 6.02454 -3.36357 
4 2 8.63272 17.126 0.0510925 6.02454 -3.36357 
5 2 -0.536956 10.2448 0.0510925 6.02454 -3.36357 
6 2 9.21176 6.80419 0.0510925 6.02454 -3.36357 
7 2 6.91934 5.08389 0.0510925 6.02454 -3.36357 
8 2 4.62692 3.36358 0.0510925 6.02454 -3.36357 
9 2 6.3403 15.4057 0.0510925 6.02454 -3.36357 
10 2 4.04788 13.6854 0.0510925 6.02454 -3.36357 
11 2 1.75546 11.9651 0.0510925 6.02454 -3.36357 
12 2 11.5457 6.08161 -1.25567 3.03918 -3.21864 
13 2 -1.07447 18.1237 -1.25567 3.03918 -3.21864 
14 2 10.9667 16.4034 -1.25567 3.03918 -3.21864 
15 2 8.67425 14.6831 -1.25567 3.03918 -3.21864 
16 2 -0.495431 7.80191 -1.25567 3.03918 -3.21864 
17 2 9.25329 4.3613 -1.25567 3.03918 -3.21864 
18 2 6.96087 2.641 -1.25567 3.03918 -3.21864 
19 2 4.66845 0.920693 -1.25567 3.03918 -3.21864 
20 2 6.38183 12.9628 -1.25567 3.03918 -3.21864 
21 2 4.08941 11.2425 -1.25567 3.03918 -3.21864 
22 2 1.79699 9.52221 -1.25567 3.03918 -3.21864 
23 2 11.8602 3.2749 -1.78596 4.5637 -3.27928 
24 2 -0.759929 15.317 -1.78596 4.5637 -3.27928 
25 2 11.2812 13.5967 -1.78596 4.5637 -3.27928 
26 2 8.98879 11.8764 -1.78596 4.5637 -3.27928 
27 2 -0.18089 4.99521 -1.78596 4.5637 -3.27928 
28 2 9.56783 1.5546 -1.78596 4.5637 -3.27928 
29 2 3.82491 18.7576 -1.78596 4.5637 -3.27928 
30 2 1.53249 17.0373 -1.78596 4.5637 -3.27928 
31 2 6.69637 10.1561 -1.78596 4.5637 -3.27928 
32 2 4.40395 8.43582 -1.78596 4.5637 -3.27928 
33 2 2.11153 6.71551 -1.78596 4.5637 -3.27928 
34 2 12.2224 0.404699 -1.96316 5.29793 -3.40218 
35 2 -0.397733 12.4468 -1.96316 5.29793 -3.40218 
36 2 11.6434 10.7265 -1.96316 5.29793 -3.40218 
37 2 9.35098 9.00622 -1.96316 5.29793 -3.40218 
38 2 0.181307 2.125 -1.96316 5.29793 -3.40218 
39 2 6.47953 17.6077 -1.96316 5.29793 -3.40218 
40 2 4.18711 15.8874 -1.96316 5.29793 -3.40218 
41 2 1.89469 14.1671 -1.96316 5.29793 -3.40218 
42 2 7.05856 7.28592 -1.96316 5.29793 -3.40218 
43 2 4.76615 5.56561 -1.96316 5.29793 -3.40218 
44 2 2.47373 3.84531 -1.96316 5.29793 -3.40218 
45 2 8.99029 16.6495 -3.03719 1.04202 -3.29124 
46 2 -0.179392 9.76832 -3.03719 1.04202 -3.29124 
47 2 11.8617 8.04802 -3.03719 1.04202 -3.29124 
48 2 9.56932 6.32771 -3.03719 1.04202 -3.29124 
49 2 -3.05085 18.3698 -3.03719 1.04202 -3.29124 
50 2 6.69787 14.9292 -3.03719 1.04202 -3.29124 
51 2 4.40545 13.2089 -3.03719 1.04202 -3.29124 
52 2 2.11303 11.4886 -3.03719 1.04202 -3.29124 
53 2 7.27691 4.60741 -3.03719 1.04202 -3.29124 
54 2 4.98449 2.8871 -3.03719 1.04202 -3.29124 
55 2 2.69207 1.1668 -3.03719 1.04202 -3.29124 
56 2 9.36532 13.7622 -3.72865 0.118332 -3.30748 
57 2 0.195647 6.881 -3.72865 0.118332 -3.30748 
58 2 12.2368 5.1607 -3.72865 0.118332 -3.30748 
59 2 9.94436 3.44039 -3.72865 0.118332 -3.30748 
60 2 -2.67581 15.4825 -3.72865 0.118332 -3.30748 
61 2 7.0729 12.0419 -3.72865 0.118332 -3.30748 
62 2 4.78049 10.3216 -3.72865 0.118332 -3.30748 
63 2 2.48807 8.60131 -3.72865 0.118332 -3.30748 
64 2 7.65194 1.72009 -3.72865 0.118332 -3.30748 
65 2 5.35952 -0.000214411 -3.72865 0.118332 -3.30748 
66 2 -0.383393 17.2028 -3.72865 0.118332 -3.30748 
67 2 9.71903 10.9033 -4.21348 0.470758 -3.34806 
68 2 0.549354 4.02211 -4.21348 0.470758 -3.34806 
69 2 12.5905 2.3018 -4.21348 0.470758 -3.34806 
70 2 10.2981 0.5815 -4.21348 0.470758 -3.34806 
71 2 12.0115 12.6236 -4.21348 0.470758 -3.34806 
72 2 7.42661 9.18302 -4.21348 0.470758 -3.34806 
73 2 5.13419 7.46272 -4.21348 0.470758 -3.34806 
74 2 2.84177 5.74241 -4.21348 0.470758 -3.34806 
75 2 4.55515 17.7845 -4.21348 0.470758 -3.34806 
76 2 2.26273 16.0642 -4.21348 0.470758 -3.34806 
77 2 -0.0296852 14.3439 -4.21348 0.470758 -3.34806 
78 2 9.95053 8.20728 -4.93983 0.182961 -3.30991 
79 2 0.780852 1.32607 -4.93983 0.182961 -3.30991 
80 2 9.37149 18.5291 -4.93983 0.182961 -3.30991 
81 2 7.07907 16.8088 -4.93983 0.182961 -3.30991 
82 2 12.2429 9.92759 -4.93983 0.182961 -3.30991 
83 2 7.65811 6.48698 -4.93983 0.182961 -3.30991 
84 2 5.36569 4.76668 -4.93983 0.182961 -3.30991 
85 2 3.07327 3.04637 -4.93983 0.182961 -3.30991 
86 2 4.78665 15.0885 -4.93983 0.182961 -3.30991 
87 2 2.49423 13.3682 -4.93983 0.182961 -3.30991 
88 2 0.201812 11.6479 -4.93983 0.182961 -3.30991 
89 2 10.2629 5.40344 -5.62887 0.032555 -3.34346 
90 2 -2.35725 17.4456 -5.62887 0.032555 -3.34346 
91 2 9.68389 15.7253 -5.62887 0.032555 -3.34346 
92 2 7.39147 14.005 -5.62887 0.032555 -3.34346 
93 2 12.5553 7.12374 -5.62887 0.032555 -3.34346 
94 2 7.97051 3.68313 -5.62887 0.032555 -3.34346 
95 2 5.67809 1.96283 -5.62887 0.032555 -3.34346 
96 2 3.38567 0.242526 -5.62887 0.032555 -3.34346 
97 2 5.09905 12.2847 -5.62887 0.032555 -3.34346 
98 2 2.80663 10.5644 -5.62887 0.032555 -3.34346 
99 2 0.514211 8.84405 -5.62887 0.032555 -3.34346 
100 2 10.5875 2.58335 -6.24389 0.0454314 -3.35232 
101 2 -2.03266 14.6255 -6.24389 0.0454314 -3.35232 
102 2 10.0085 12.9052 -6.24389 0.0454314 -3.35232 
103 2 7.71606 11.1849 -6.24389 0.0454314 -3.35232 
104 2 12.8799 4.30365 -6.24389 0.0454314 -3.35232 
105 2 8.2951 0.863042 -6.24389 0.0454314 -3.35232 
106 2 2.55218 18.0661 -6.24389 0.0454314 -3.35232 
107 2 0.259762 16.3458 -6.24389 0.0454314 -3.35232 
108 2 5.42364 9.46456 -6.24389 0.0454314 -3.35232 
109 2 3.13122 7.74426 -6.24389 0.0454314 -3.35232 
110 2 0.838802 6.02395 -6.24389 0.0454314 -3.35232 
111 2 7.41349 18.7507 -6.89638 0.0115098 -3.33259 
112 2 -1.75619 11.8695 -6.89638 0.0115098 -3.33259 
113 2 10.2849 10.1492 -6.89638 0.0115098 -3.33259 
114 2 7.99253 8.4289 -6.89638 0.0115098 -3.33259 
115 2 13.1564 1.54768 -6.89638 0.0115098 -3.33259 
116 2 5.12107 17.0304 -6.89638 0.0115098 -3.33259 
117 2 2.82865 15.3101 -6.89638 0.0115098 -3.33259 
118 2 0.536231 13.5898 -6.89638 0.0115098 -3.33259 
119 2 5.70011 6.70859 -6.89638 0.0115098 -3.33259 
120 2 3.40769 4.98829 -6.89638 0.0115098 -3.33259 
121 2 1.11527 3.26799 -6.89638 0.0115098 -3.33259 
122 2 7.70361 15.9766 -7.56415 0.00740266 -3.35809 
123 2 -1.46607 9.09535 -7.56415 0.00740266 -3.35809 
124 2 10.5751 7.37505 -7.56415 0.00740266 -3.35809 
125 2 8.28265 5.65475 -7.56415 0.00740266 -3.35809 
126 2 9.99603 17.6969 -7.56415 0.00740266 -3.35809 
127 2 5.41119 14.2563 -7.56415 0.00740266 -3.35809 
128 2 3.11877 12.536 -7.56415 0.00740266 -3.35809 
129 2 0.826348 10.8157 -7.56415 0.00740266 -3.35809 
130 2 5.99023 3.93444 -7.56415 0.00740266 -3.35809 
131 2 3.69781 2.21414 -7.56415 0.00740266 -3.35809 
132 2 1.40539 0.493833 -7.56415 0.00740266 -3.35809 
133 2 8.00436 13.1882 -8.22006 0.0058477 -3.35738 
134 2 13.1682 6.30702 -8.22006 0.0058477 -3.35738 
135 2 10.8758 4.58672 -8.22006 0.0058477 -3.35738 
136 2 8.5834 2.86642 -8.22006 0.0058477 -3.35738 
137 2 10.2968 14.9085 -8.22006 0.0058477 -3.35738 
138 2 5.71194 11.4679 -8.22006 0.0058477 -3.35738 
139 2 3.41952 9.74763 -8.22006 0.0058477 -3.35738 
140 2 1.1271 8.02733 -8.22006 0.0058477 -3.35738 
141 2 6.29098 1.14611 -8.22006 0.0058477 -3.35738 
142 2 0.548063 18.3492 -8.22006 0.0058477 -3.35738 
143 2 -1.74436 16.6288 -8.22006 0.0058477 -3.35738 
144 2 8.29488 10.4136 -8.87043 0.00233048 -3.35067 
145 2 13.4588 3.53234 -8.87043 0.00233048 -3.35067 
146 2 11.1663 1.81203 -8.87043 0.00233048 -3.35067 
147 2 8.87392 0.091729 -8.87043 0.00233048 -3.35067 
148 2 10.5873 12.1339 -8.87043 0.00233048 -3.35067 
149 2 6.00246 8.69325 -8.87043 0.00233048 -3.35067 
150 2 3.71004 6.97295 -8.87043 0.00233048 -3.35067 
151 2 1.41762 5.25264 -8.87043 0.00233048 -3.35067 
152 2 3.131 17.2948 -8.87043 0.00233048 -3.35067 
153 2 0.83858 15.5745 -8.87043 0.00233048 -3.35067 
154 2 -1.45384 13.8542 -8.87043 0.00233048 -3.35067 
155 2 8.58296 7.64211 -9.53436 0.00204122 -3.35866 
156 2 13.7468 0.76089 -9.53436 0.00204122 -3.35866 
157 2 8.00392 17.9639 -9.53436 0.00204122 -3.35866 
158 2 5.7115 16.2436 -9.53436 0.00204122 -3.35866 
159 2 10.8754 9.36241 -9.53436 0.00204122 -3.35866 
160 2 6.29054 5.9218 -9.53436 0.00204122 -3.35866 
161 2 3.99812 4.2015 -9.53436 0.00204122 -3.35866 
162 2 1.7057 2.48119 -9.53436 0.00204122 -3.35866 
163 2 3.41908 14.5233 -9.53436 0.00204122 -3.35866 
164 2 1.12666 12.803 -9.53436 0.00204122 -3.35866 
165 2 -1.16575 11.0827 -9.53436 0.00204122 -3.35866 
166 2 8.87328 4.86768 -10.1979 0.00167705 -3.3594 
167 2 10.5867 16.9098 -10.1979 0.00167705 -3.3594 
168 2 8.29424 15.1895 -10.1979 0.00167705 -3.3594 
169 2 6.00182 13.4692 -10.1979 0.00167705 -3.3594 
170 2 11.1657 6.58798 -10.1979 0.00167705 -3.3594 
171 2 6.58086 3.14738 -10.1979 0.00167705 -3.3594 
172 2 4.28844 1.42707 -10.1979 0.00167705 -3.3594 
173 2 -1.45447 18.6301 -10.1979 0.00167705 -3.3594 
174 2 3.70941 11.7489 -10.1979 0.00167705 -3.3594 
175 2 1.41699 10.0286 -10.1979 0.00167705 -3.3594 
176 2 -0.875434 8.30829 -10.1979 0.00167705 -3.3594 
177 2 9.16365 2.09319 -10.8585 0.0012623 -3.35789 
178 2 10.877 14.1353 -10.8585 0.0012623 -3.35789 
179 2 8.58461 12.415 -10.8585 0.0012623 -3.35789 
180 2 6.29219 10.6947 -10.8585 0.0012623 -3.35789 
181 2 11.4561 3.8135 -10.8585 0.0012623 -3.35789 
182 2 6.87123 0.372888 -10.8585 0.0012623 -3.35789 
183 2 1.12831 17.5759 -10.8585 0.0012623 -3.35789 
184 2 -1.16411 15.8556 -10.8585 0.0012623 -3.35789 
185 2 3.99977 8.97441 -10.8585 0.0012623 -3.35789 
186 2 1.70735 7.2541 -10.8585 0.0012623 -3.35789 
187 2 -0.585066 5.5338 -10.8585 0.0012623 -3.35789 
188 2 6.00125 18.2451 -11.5226 0.000974626 -3.35966 
189 2 11.1651 11.3639 -11.5226 0.000974626 -3.35966 
190 2 8.87271 9.64355 -11.5226 0.000974626 -3.35966 
191 2 6.58029 7.92325 -11.5226 0.000974626 -3.35966 
192 2 11.7442 1.04203 -11.5226 0.000974626 -3.35966 
193 2 3.70883 16.5248 -11.5226 0.000974626 -3.35966 
194 2 1.41641 14.8045 -11.5226 0.000974626 -3.35966 
195 2 -0.876007 13.0842 -11.5226 0.000974626 -3.35966 
196 2 4.28787 6.20294 -11.5226 0.000974626 -3.35966 
197 2 1.99545 4.48264 -11.5226 0.000974626 -3.35966 
198 2 -0.296967 2.76234 -11.5226 0.000974626 -3.35966 
199 2 6.28966 15.4732 -12.1904 0.000766106 -3.36016 
200 2 11.4535 8.59198 -12.1904 0.000766106 -3.36016 
201 2 9.16112 6.87168 -12.1904 0.000766106 -3.36016 
202 2 6.8687 5.15137 -12.1904 0.000766106 -3.36016 
203 2 8.58208 17.1935 -12.1904 0.000766106 -3.36016 
204 2 3.99724 13.7529 -12.1904 0.000766106 -3.36016 
205 2 1.70482 12.0326 -12.1904 0.000766106 -3.36016 
206 2 -0.5876 10.3123 -12.1904 0.000766106 -3.36016 
207 2 4.57628 3.43107 -12.1904 0.000766106 -3.36016 
208 2 2.28386 1.71076 -12.1904 0.000766106 -3.36016 
209 2 14.325 -0.00953919 -12.1904 0.000766106 -3.36016 
210 2 6.57862 12.7006 -12.8575 0.000641686 -3.36036 
211 2 11.7425 5.81937 -12.8575 0.000641686 -3.36036 
212 2 9.45008 4.09906 -12.8575 0.000641686 -3.36036 
213 2 7.15766 2.37876 -12.8575 0.000641686 -3.36036 
214 2 8.87104 14.4209 -12.8575 0.000641686 -3.36036 
215 2 4.2862 10.9803 -12.8575 0.000641686 -3.36036 
216 2 1.99378 9.25997 -12.8575 0.000641686 -3.36036 
217 2 -0.298638 7.53967 -12.8575 0.000641686 -3.36036 
218 2 4.86524 0.658453 -12.8575 0.000641686 -3.36036 
219 2 -0.877677 17.8615 -12.8575 0.000641686 -3.36036 
220 2 11.1635 16.1412 -12.8575 0.000641686 -3.36036 
221 2 6.867 9.92874 -13.5255 0.000489668 -3.36036 
222 2 12.0309 3.04752 -13.5255 0.000489668 -3.36036 
223 2 9.73846 1.32722 -13.5255 0.000489668 -3.36036 
224 2 3.99555 18.5303 -13.5255 0.000489668 -3.36036 
225 2 9.15942 11.649 -13.5255 0.000489668 -3.36036 
226 2 4.57458 8.20843 -13.5255 0.000489668 -3.36036 
227 2 2.28217 6.48813 -13.5255 0.000489668 -3.36036 
228 2 -0.0102539 4.76782 -13.5255 0.000489668 -3.36036 
229 2 1.70313 16.81 -13.5255 0.000489668 -3.36036 
230 2 -0.589293 15.0896 -13.5255 0.000489668 -3.36036 
231 2 11.4518 13.3693 -13.5255 0.000489668 -3.36036 
232 2 7.15509 7.15729 -14.1956 0.000372058 -3.36074 
233 2 12.319 0.276069 -14.1956 0.000372058 -3.36074 
234 2 6.57605 17.4791 -14.1956 0.000372058 -3.36074 
235 2 4.28363 15.7588 -14.1956 0.000372058 -3.36074 
236 2 9.44751 8.87759 -14.1956 0.000372058 -3.36074 
237 2 4.86267 5.43698 -14.1956 0.000372058 -3.36074 
238 2 2.57025 3.71668 -14.1956 0.000372058 -3.36074 
239 2 0.277835 1.99637 -14.1956 0.000372058 -3.36074 
240 2 1.99121 14.0385 -14.1956 0.000372058 -3.36074 
241 2 -0.301204 12.3182 -14.1956 0.000372058 -3.36074 
242 2 11.7399 10.5979 -14.1956 0.000372058 -3.36074 
243 2 7.44347 4.38545 -14.8665 0.000286829 -3.36072 
244 2 9.15685 16.4276 -14.8665 0.000286829 -3.36072 
245 2 6.86443 14.7073 -14.8665 0.000286829 -3.36072 
246 2 4.57201 12.987 -14.8665 0.000286829 -3.36072 
247 2 9.73589 6.10575 -14.8665 0.000286829 -3.36072 
248 2 5.15105 2.66514 -14.8665 0.000286829 -3.36072 
249 2 2.85863 0.944837 -14.8665 0.000286829 -3.36072 
250 2 -2.88428 18.1479 -14.8665 0.000286829 -3.36072 
251 2 2.2796 11.2667 -14.8665 0.000286829 -3.36072 
252 2 -0.0128242 9.54636 -14.8665 0.000286829 -3.36072 
253 2 12.0283 7.82605 -14.8665 0.000286829 -3.36072 
254 2 7.73182 1.61364 -15.5377 0.000204109 -3.36065 
255 2 9.4452 13.6558 -15.5377 0.000204109 -3.36065 
256 2 7.15279 11.9355 -15.5377 0.000204109 -3.36065 
257 2 4.86037 10.2152 -15.5377 0.000204109 -3.36065 
258 2 10.0242 3.33395 -15.5377 0.000204109 -3.36065 
259 2 1.98891 18.8167 -15.5377 0.000204109 -3.36065 
260 2 -0.303512 17.0964 -15.5377 0.000204109 -3.36065 
261 2 -2.59593 15.3761 -15.5377 0.000204109 -3.36065 
262 2 2.56795 8.49486 -15.5377 0.000204109 -3.36065 
263 2 0.275527 6.77456 -15.5377 0.000204109 -3.36065 
264 2 12.3167 5.05425 -15.5377 0.000204109 -3.36065 
265 2 4.56951 17.7654 -16.2099 0.000141218 -3.36066 
266 2 9.73339 10.8842 -16.2099 0.000141218 -3.36066 
267 2 7.44097 9.16389 -16.2099 0.000141218 -3.36066 
268 2 5.14855 7.44359 -16.2099 0.000141218 -3.36066 
269 2 10.3124 0.562372 -16.2099 0.000141218 -3.36066 
270 2 2.27709 16.0451 -16.2099 0.000141218 -3.36066 
271 2 -0.0153305 14.3248 -16.2099 0.000141218 -3.36066 
272 2 12.0258 12.6045 -16.2099 0.000141218 -3.36066 
273 2 2.85613 5.72328 -16.2099 0.000141218 -3.36066 
274 2 0.563709 4.00298 -16.2099 0.000141218 -3.36066 
275 2 12.6048 2.28268 -16.2099 0.000141218 -3.36066 
276 2 4.85772 14.9938 -16.8827 0.000100068 -3.36066 
277 2 10.0216 8.11258 -16.8827 0.000100068 -3.36066 
278 2 7.72918 6.39228 -16.8827 0.000100068 -3.36066 
279 2 5.43676 4.67198 -16.8827 0.000100068 -3.36066 
280 2 7.15014 16.7141 -16.8827 0.000100068 -3.36066 
281 2 2.5653 13.2735 -16.8827 0.000100068 -3.36066 
282 2 0.27288 11.5532 -16.8827 0.000100068 -3.36066 
283 2 12.314 9.83289 -16.8827 0.000100068 -3.36066 
284 2 3.14434 2.95167 -16.8827 0.000100068 -3.36066 
285 2 0.851919 1.23137 -16.8827 0.000100068 -3.36066 
286 2 9.44256 18.4344 -16.8827 0.000100068 -3.36066 
287 2 5.14597 12.2221 -17.5559 6.79363e-05 -3.36054 
288 2 10.3099 5.34091 -17.5559 6.79363e-05 -3.36054 
289 2 8.01743 3.62061 -17.5559 6.79363e-05 -3.36054 
290 2 5.72501 1.9003 -17.5559 6.79363e-05 -3.36054 
291 2 7.43839 13.9424 -17.5559 6.79363e-05 -3.36054 
292 2 2.85355 10.5018 -17.5559 6.79363e-05 -3.36054 
293 2 0.561134 8.78152 -17.5559 6.79363e-05 -3.36054 
294 2 12.6023 7.06122 -17.5559 6.79363e-05 -3.36054 
295 2 3.43259 0.179999 -17.5559 6.79363e-05 -3.36054 
296 2 -2.31032 17.383 -17.5559 6.79363e-05 -3.36054 
297 2 9.73081 15.6627 -17.5559 6.79363e-05 -3.36054 
298 2 5.43419 9.45051 -18.2295 4.37016e-05 -3.36046 
299 2 10.5981 2.56929 -18.2295 4.37016e-05 -3.36046 
300 2 8.30565 0.848986 -18.2295 4.37016e-05 -3.36046 
301 2 2.56273 18.052 -18.2295 4.37016e-05 -3.36046 
302 2 7.72661 11.1708 -18.2295 4.37016e-05 -3.36046 
303 2 3.14177 7.7302 -18.2295 4.37016e-05 -3.36046 
304 2 0.84935 6.0099 -18.2295 4.37016e-05 -3.36046 
305 2 12.8905 4.28959 -18.2295 4.37016e-05 -3.36046 
306 2 0.270311 16.3317 -18.2295 4.37016e-05 -3.36046 
307 2 -2.02211 14.6114 -18.2295 4.37016e-05 -3.36046 
308 2 10.019 12.8911 -18.2295 4.37016e-05 -3.36046 
309 2 5.72239 6.67891 -18.9034 2.8284e-05 -3.36041 
310 2 7.43577 18.721 -18.9034 2.8284e-05 -3.36041 
311 2 5.14335 17.0007 -18.9034 2.8284e-05 -3.36041 
312 2 2.85093 15.2804 -18.9034 2.8284e-05 -3.36041 
313 2 8.01481 8.39921 -18.9034 2.8284e-05 -3.36041 
314 2 3.42997 4.95861 -18.9034 2.8284e-05 -3.36041 
315 2 1.13755 3.2383 -18.9034 2.8284e-05 -3.36041 
316 2 13.1787 1.518 -18.9034 2.8284e-05 -3.36041 
317 2 0.558509 13.5601 -18.9034 2.8284e-05 -3.36041 
318 2 -1.73391 11.8398 -18.9034 2.8284e-05 -3.36041 
319 2 10.3072 10.1195 -18.9034 2.8284e-05 -3.36041 
320 2 6.0106 3.9073 -19.5775 1.81636e-05 -3.36034 
321 2 7.72398 15.9494 -19.5775 1.81636e-05 -3.36034 
322 2 5.43156 14.2291 -19.5775 1.81636e-05 -3.36034 
323 2 3.13914 12.5088 -19.5775 1.81636e-05 -3.36034 
324 2 8.30302 5.6276 -19.5775 1.81636e-05 -3.36034 
325 2 3.71818 2.18699 -19.5775 1.81636e-05 -3.36034 
326 2 1.42576 0.466688 -19.5775 1.81636e-05 -3.36034 
327 2 10.0164 17.6697 -19.5775 1.81636e-05 -3.36034 
328 2 0.846719 10.7885 -19.5775 1.81636e-05 -3.36034 
329 2 -1.4457 9.06821 -19.5775 1.81636e-05 -3.36034 
330 2 10.5954 7.3479 -19.5775 1.81636e-05 -3.36034 
331 2 6.29881 1.13568 -20.2519 1.11961e-05 -3.36027 
332 2 8.01219 13.1778 -20.2519 1.11961e-05 -3.36027 
333 2 5.71977 11.4575 -20.2519 1.11961e-05 -3.36027 
334 2 3.42735 9.73721 -20.2519 1.11961e-05 -3.36027 
335 2 8.59123 2.85599 -20.2519 1.11961e-05 -3.36027 
336 2 0.555888 18.3387 -20.2519 1.11961e-05 -3.36027 
337 2 -1.73653 16.6184 -20.2519 1.11961e-05 -3.36027 
338 2 10.3046 14.8981 -20.2519 1.11961e-05 -3.36027 
339 2 1.13493 8.0169 -20.2519 1.11961e-05 -3.36027 
340 2 13.1761 6.2966 -20.2519 1.11961e-05 -3.36027 
341 2 10.8836 4.57629 -20.2519 1.11961e-05 -3.36027 
342 2 3.13651 17.2874 -20.9264 6.76817e-06 -3.36022 
343 2 8.30039 10.4062 -20.9264 6.76817e-06 -3.36022 
344 2 6.00797 8.68591 -20.9264 6.76817e-06 -3.36022 
345 2 3.71555 6.9656 -20.9264 6.76817e-06 -3.36022 
346 2 8.87943 0.0843859 -20.9264 6.76817e-06 -3.36022 
347 2 0.84409 15.5671 -20.9264 6.76817e-06 -3.36022 
348 2 -1.44833 13.8468 -20.9264 6.76817e-06 -3.36022 
349 2 10.5928 12.1265 -20.9264 6.76817e-06 -3.36022 
350 2 1.42313 5.2453 -20.9264 6.76817e-06 -3.36022 
351 2 13.4643 3.52499 -20.9264 6.76817e-06 -3.36022 
352 2 11.1718 1.80469 -20.9264 6.76817e-06 -3.36022 
353 2 3.42471 14.5158 -21.601 4.0819e-06 -3.36018 
354 2 8.58859 7.63461 -21.601 4.0819e-06 -3.36018 
355 2 6.29617 5.9143 -21.601 4.0819e-06 -3.36018 
356 2 4.00375 4.194 -21.601 4.0819e-06 -3.36018 
357 2 5.71713 16.2361 -21.601 4.0819e-06 -3.36018 
358 2 1.13229 12.7955 -21.601 4.0819e-06 -3.36018 
359 2 -1.16013 11.0752 -21.601 4.0819e-06 -3.36018 
360 2 10.881 9.35491 -21.601 4.0819e-06 -3.36018 
361 2 1.71133 2.4737 -21.601 4.0819e-06 -3.36018 
362 2 13.7525 0.753392 -21.601 4.0819e-06 -3.36018 
363 2 8.00955 17.9564 -21.601 4.0819e-06 -3.36018 
364 2 3.71291 11.7442 -22.2758 2.41392e-06 -3.36013 
365 2 8.87679 4.86301 -22.2758 2.41392e-06 -3.36013 
366 2 6.58437 3.1427 -22.2758 2.41392e-06 -3.36013 
367 2 4.29195 1.4224 -22.2758 2.41392e-06 -3.36013 
368 2 6.00533 13.4645 -22.2758 2.41392e-06 -3.36013 
369 2 1.42049 10.0239 -22.2758 2.41392e-06 -3.36013 
370 2 -0.871925 8.30361 -22.2758 2.41392e-06 -3.36013 
371 2 11.1692 6.58331 -22.2758 2.41392e-06 -3.36013 
372 2 -1.45096 18.6254 -22.2758 2.41392e-06 -3.36013 
373 2 10.5902 16.9051 -22.2758 2.41392e-06 -3.36013 
374 2 8.29775 15.1848 -22.2758 2.41392e-06 -3.36013 
375 2 4.00112 8.97262 -22.9506 1.39361e-06 -3.3601 
376 2 9.16499 2.0914 -22.9506 1.39361e-06 -3.3601 
377 2 6.87257 0.371099 -22.9506 1.39361e-06 -3.3601 
378 2 1.12966 17.5741 -22.9506 1.39361e-06 -3.3601 
379 2 6.29353 10.6929 -22.9506 1.39361e-06 -3.3601 
380 2 1.7087 7.25232 -22.9506 1.39361e-06 -3.3601 
381 2 -0.583723 5.53201 -22.9506 1.39361e-06 -3.3601 
382 2 11.4574 3.81171 -22.9506 1.39361e-06 -3.3601 
383 2 -1.16276 15.8538 -22.9506 1.39361e-06 -3.3601 
384 2 10.8784 14.1335 -22.9506 1.39361e-06 -3.3601 
385 2 8.58595 12.4132 -22.9506 1.39361e-06 -3.3601 
386 2 4.28932 6.20102 -23.6254 7.95353e-07 -3.36007 
387 2 6.0027 18.2431 -23.6254 7.95353e-07 -3.36007 
388 2 3.71028 16.5228 -23.6254 7.95353e-07 -3.36007 
389 2 1.41786 14.8025 -23.6254 7.95353e-07 -3.36007 
390 2 6.58174 7.92132 -23.6254 7.95353e-07 -3.36007 
391 2 1.9969 4.48071 -23.6254 7.95353e-07 -3.36007 
392 2 -0.295523 2.76041 -23.6254 7.95353e-07 -3.36007 
393 2 11.7456 1.04011 -23.6254 7.95353e-07 -3.36007 
394 2 -0.874562 13.0822 -23.6254 7.95353e-07 -3.36007 
395 2 11.1666 11.3619 -23.6254 7.95353e-07 -3.36007 
396 2 8.87415 9.64163 -23.6254 7.95353e-07 -3.36007 
397 2 4.57752 3.42942 -24.3003 4.49164e-07 -3.36005 
398 2 6.2909 15.4715 -24.3003 4.49164e-07 -3.36005 
399 2 3.99848 13.7512 -24.3003 4.49164e-07 -3.36005 
400 2 1.70606 12.0309 -24.3003 4.49164e-07 -3.36005 
401 2 6.86994 5.14972 -24.3003 4.49164e-07 -3.36005 
402 2 2.2851 1.70911 -24.3003 4.49164e-07 -3.36005 
403 2 -3.45782 18.9122 -24.3003 4.49164e-07 -3.36005 
404 2 8.58332 17.1919 -24.3003 4.49164e-07 -3.36005 
405 2 -0.586361 10.3106 -24.3003 4.49164e-07 -3.36005 
406 2 11.4548 8.59033 -24.3003 4.49164e-07 -3.36005 
407 2 9.16236 6.87003 -24.3003 4.49164e-07 -3.36005 
408 2 4.86572 0.657816 -24.9752 2.49368e-07 -3.36003 
409 2 6.5791 12.6999 -24.9752 2.49368e-07 -3.36003 
410 2 4.28668 10.9796 -24.9752 2.49368e-07 -3.36003 
411 2 1.99426 9.25934 -24.9752 2.49368e-07 -3.36003 
412 2 7.15814 2.37812 -24.9752 2.49368e-07 -3.36003 
413 2 -0.877199 17.8609 -24.9752 2.49368e-07 -3.36003 
414 2 11.1639 16.1406 -24.9752 2.49368e-07 -3.36003 
415 2 8.87152 14.4202 -24.9752 2.49368e-07 -3.36003 
416 2 -0.29816 7.53903 -24.9752 2.49368e-07 -3.36003 
417 2 11.743 5.81873 -24.9752 2.49368e-07 -3.36003 
418 2 9.45056 4.09842 -24.9752 2.49368e-07 -3.36003 
419 2 1.70342 16.8096 -25.6501 1.36324e-07 -3.36002 
420 2 6.8673 9.92834 -25.6501 1.36324e-07 -3.36002 
421 2 4.57488 8.20804 -25.6501 1.36324e-07 -3.36002 
422 2 2.28246 6.48774 -25.6501 1.36324e-07 -3.36002 
423 2 3.99584 18.5299 -25.6501 1.36324e-07 -3.36002 
424 2 -0.588998 15.0893 -25.6501 1.36324e-07 -3.36002 
425 2 11.4521 13.369 -25.6501 1.36324e-07 -3.36002 
426 2 9.15972 11.6486 -25.6501 1.36324e-07 -3.36002 
427 2 -0.00995897 4.76743 -25.6501 1.36324e-07 -3.36002 
428 2 12.0312 3.04713 -25.6501 1.36324e-07 -3.36002 
429 2 9.73876 1.32682 -25.6501 1.36324e-07 -3.36002 
430 2 1.99162 14.038 -26.3251 7.3705e-08 -3.36001 
431 2 7.1555 7.15674 -26.3251 7.3705e-08 -3.36001 
432 2 4.86308 5.43644 -26.3251 7.3705e-08 -3.36001 
433 2 2.57066 3.71613 -26.3251 7.3705e-08 -3.36001 
434 2 4.28404 15.7583 -26.3251 7.3705e-08 -3.36001 
435 2 -0.300797 12.3177 -26.3251 7.3705e-08 -3.36001 
436 2 11.7403 10.5974 -26.3251 7.3705e-08 -3.36001 
437 2 9.44792 8.87705 -26.3251 7.3705e-08 -3.36001 
438 2 0.278242 1.99583 -26.3251 7.3705e-08 -3.36001 
439 2 12.3194 0.275526 -26.3251 7.3705e-08 -3.36001 
440 2 6.57646 17.4786 -26.3251 7.3705e-08 -3.36001 
441 2 2.27982 11.2664 -27.0001 3.93828e-08 -3.36 
442 2 7.4437 4.38514 -27.0001 3.93828e-08 -3.36 
443 2 5.15128 2.66484 -27.0001 3.93828e-08 -3.36 
444 2 2.85886 0.944534 -27.0001 3.93828e-08 -3.36 
445 2 4.57224 12.9867 -27.0001 3.93828e-08 -3.36 
446 2 -0.0125966 9.54605 -27.0001 3.93828e-08 -3.36 
447 2 12.0285 7.82575 -27.0001 3.93828e-08 -3.36 
448 2 9.73612 6.10545 -27.0001 3.93828e-08 -3.36 
449 2 -2.88406 18.1476 -27.0001 3.93828e-08 -3.36 
450 2 9.15708 16.4273 -27.0001 3.93828e-08 -3.36 
451 2 6.86466 14.707 -27.0001 3.93828e-08 -3.36 
452 2 2.56802 8.49476 -27.6751 2.07633e-08 -3.36 
453 2 7.7319 1.61354 -27.6751 2.07633e-08 -3.36 
454 2 1.98898 18.8166 -27.6751 2.07633e-08 -3.36 
455 2 -0.303435 17.0963 -27.6751 2.07633e-08 -3.36 
456 2 4.86044 10.2151 -27.6751 2.07633e-08 -3.36 
457 2 0.275604 6.77445 -27.6751 2.07633e-08 -3.36 
458 2 12.3167 5.05415 -27.6751 2.07633e-08 -3.36 
459 2 10.0243 3.33385 -27.6751 2.07633e-08 -3.36 
460 2 -2.59585 15.376 -27.6751 2.07633e-08 -3.36 
461 2 9.44528 13.6557 -27.6751 2.07633e-08 -3.36 
462 2 7.15286 11.9354 -27.6751 2.07633e-08 -3.36 
463 2 2.85622 5.72316 -28.35 1.08163e-08 -3.35999 
464 2 4.5696 17.7653 -28.35 1.08163e-08 -3.35999 
465 2 2.27719 16.045 -28.35 1.08163e-08 -3.35999 
466 2 -0.0152341 14.3247 -28.35 1.08163e-08 -3.35999 
467 2 5.14864 7.44346 -28.35 1.08163e-08 -3.35999 
468 2 0.563805 4.00285 -28.35 1.08163e-08 -3.35999 
469 2 12.6049 2.28255 -28.35 1.08163e-08 -3.35999 
470 2 10.3125 0.562244 -28.35 1.08163e-08 -3.35999 
471 2 -2.30765 12.6044 -28.35 1.08163e-08 -3.35999 
472 2 9.73348 10.8841 -28.35 1.08163e-08 -3.35999 
473 2 7.44106 9.16376 -28.35 1.08163e-08 -3.35999 
474 2 3.14443 2.95156 -29.025 5.57557e-09 -3.35999 
475 2 4.85781 14.9937 -29.025 5.57557e-09 -3.35999 
476 2 2.56539 13.2734 -29.025 5.57557e-09 -3.35999 
477 2 0.272967 11.5531 -29.025 5.57557e-09 -3.35999 
478 2 5.43684 4.67186 -29.025 5.57557e-09 -3.35999 
479 2 0.852006 1.23125 -29.025 5.57557e-09 -3.35999 
480 2 9.44264 18.4343 -29.025 5.57557e-09 -3.35999 
481 2 7.15022 16.714 -29.025 5.57557e-09 -3.35999 
482 2 12.3141 9.83277 -29.025 5.57557e-09 -3.35999 
483 2 10.0217 8.11247 -29.025 5.57557e-09 -3.35999 
484 2 7.72926 6.39216 -29.025 5.57557e-09 -3.35999 
485 2 3.43263 0.179954 -29.7 2.84307e-09 -3.35998 
486 2 5.14601 12.2221 -29.7 2.84307e-09 -3.35998 
487 2 2.85359 10.5018 -29.7 2.84307e-09 -3.35998 
488 2 0.561168 8.78147 -29.7 2.84307e-09 -3.35998 
489 2 5.72505 1.90026 -29.7 2.84307e-09 -3.35998 
490 2 -2.31029 17.383 -29.7 2.84307e-09 -3.35998 
491 2 9.73085 15.6627 -29.7 2.84307e-09 -3.35998 
492 2 7.43843 13.9424 -29.7 2.84307e-09 -3.35998 
493 2 12.6023 7.06117 -29.7 2.84307e-09 -3.35998 
494 2 10.3099 5.34087 -29.7 2.84307e-09 -3.35998 
495 2 8.01747 3.62056 -29.7 2.84307e-09 -3.35998 
496 2 0.270329 16.3317 -30.375 1.43384e-09 -3.35998 
497 2 5.43421 9.45048 -30.375 1.43384e-09 -3.35998 
498 2 3.14179 7.73018 -30.375 1.43384e-09 -3.35998 
499 2 0.849368 6.00987 -30.375 1.43384e-09 -3.35998 
500 2 2.56275 18.052 -30.375 1.43384e-09 -3.35998 
501 2 -2.02209 14.6114 -30.375 1.43384e-09 -3.35998 
502 2 10.019 12.8911 -30.375 1.43384e-09 -3.35998 
503 2 7.72663 11.1708 -30.375 1.43384e-09 -3.35998 
504 2 12.8905 4.28957 -30.375 1.43384e-09 -3.35998 
505 2 10.5981 2.56927 -30.375 1.43384e-09 -3.35998 
506 2 8.30567 0.848961 -30.375 1.43384e-09 -3.35998 
507 2 0.55853 13.5601 -31.05 7.15794e-10 -3.35998 
508 2 5.72241 6.67888 -31.05 7.15794e-10 -3.35998 
509 2 3.42999 4.95858 -31.05 7.15794e-10 -3.35998 
510 2 1.13757 3.23827 -31.05 7.15794e-10 -3.35998 
511 2 2.85095 15.2804 -31.05 7.15794e-10 -3.35998 
512 2 -1.73389 11.8398 -31.05 7.15794e-10 -3.35998 
513 2 10.3072 10.1195 -31.05 7.15794e-10 -3.35998 
514 2 8.01483 8.39919 -31.05 7.15794e-10 -3.35998 
515 2 13.1787 1.51797 -31.05 7.15794e-10 -3.35998 
516 2 7.43579 18.721 -31.05 7.15794e-10 -3.35998 
517 2 5.14337 17.0007 -31.05 7.15794e-10 -3.35998 
518 2 0.846731 10.7885 -31.725 3.53913e-10 -3.35998 
519 2 6.01061 3.90728 -31.725 3.53913e-10 -3.35998 
520 2 3.71819 2.18698 -31.725 3.53913e-10 -3.35998 
521 2 1.42577 0.466672 -31.725 3.53913e-10 -3.35998 
522 2 3.13915 12.5088 -31.725 3.53913e-10 -3.35998 
523 2 -1.44569 9.06819 -31.725 3.53913e-10 -3.35998 
524 2 10.5954 7.34789 -31.725 3.53913e-10 -3.35998 
525 2 8.30303 5.62758 -31.725 3.53913e-10 -3.35998 
526 2 10.0164 17.6697 -31.725 3.53913e-10 -3.35998 
527 2 7.72399 15.9494 -31.725 3.53913e-10 -3.35998 
528 2 5.43157 14.2291 -31.725 3.53913e-10 -3.35998 
529 2 1.13493 8.0169 -32.4 1.73312e-10 -3.35998 
530 2 6.29881 1.13568 -32.4 1.73312e-10 -3.35998 
531 2 0.555893 18.3387 -32.4 1.73312e-10 -3.35998 
532 2 -1.73653 16.6184 -32.4 1.73312e-10 -3.35998 
533 2 3.42735 9.7372 -32.4 1.73312e-10 -3.35998 
534 2 -1.15749 6.29659 -32.4 1.73312e-10 -3.35998 
535 2 10.8836 4.57629 -32.4 1.73312e-10 -3.35998 
536 2 8.59123 2.85598 -32.4 1.73312e-10 -3.35998 
537 2 10.3046 14.8981 -32.4 1.73312e-10 -3.35998 
538 2 8.01219 13.1778 -32.4 1.73312e-10 -3.35998 
539 2 5.71977 11.4575 -32.4 1.73312e-10 -3.35998 
540 2 1.42313 5.24529 -33.075 8.40754e-11 -3.35998 
541 2 3.13651 17.2874 -33.075 8.40754e-11 -3.35998 
542 2 0.844093 15.5671 -33.075 8.40754e-11 -3.35998 
543 2 -1.44833 13.8468 -33.075 8.40754e-11 -3.35998 
544 2 3.71555 6.9656 -33.075 8.40754e-11 -3.35998 
545 2 13.4643 3.52499 -33.075 8.40754e-11 -3.35998 
546 2 11.1718 1.80469 -33.075 8.40754e-11 -3.35998 
547 2 8.87943 0.0843818 -33.075 8.40754e-11 -3.35998 
548 2 10.5928 12.1265 -33.075 8.40754e-11 -3.35998 
549 2 8.30039 10.4062 -33.075 8.40754e-11 -3.35998 
550 2 6.00797 8.6859 -33.075 8.40754e-11 -3.35998 
551 2 1.71133 2.47369 -33.75 4.04225e-11 -3.35998 
552 2 3.42471 14.5158 -33.75 4.04225e-11 -3.35998 
553 2 1.13229 12.7955 -33.75 4.04225e-11 -3.35998 
554 2 -1.16013 11.0752 -33.75 4.04225e-11 -3.35998 
555 2 4.00375 4.194 -33.75 4.04225e-11 -3.35998 
556 2 13.7525 0.753389 -33.75 4.04225e-11 -3.35998 
557 2 8.00955 17.9564 -33.75 4.04225e-11 -3.35998 
558 2 5.71713 16.2361 -33.75 4.04225e-11 -3.35998 
559 2 10.881 9.35491 -33.75 4.04225e-11 -3.35998 
560 2 8.58859 7.63461 -33.75 4.04225e-11 -3.35998 
561 2 6.29617 5.9143 -33.75 4.04225e-11 -3.35998 
562 2 -1.45096 18.6254 -34.425 1.92676e-11 -3.35998 
563 2 3.71291 11.7442 -34.425 1.92676e-11 -3.35998 
564 2 1.4205 10.0239 -34.425 1.92676e-11 -3.35998 
565 2 -0.871924 8.30361 -34.425 1.92676e-11 -3.35998 
566 2 4.29195 1.4224 -34.425 1.92676e-11 -3.35998 
567 2 10.5902 16.9051 -34.425 1.92676e-11 -3.35998 
568 2 8.29775 15.1848 -34.425 1.92677e-11 -3.35998 
569 2 6.00533 13.4645 -34.425 1.92677e-11 -3.35998 
570 2 11.1692 6.58331 -34.425 1.92676e-11 -3.35998 
571 2 8.87679 4.863 -34.425 1.92677e-11 -3.35998 
572 2 6.58437 3.1427 -34.425 1.92676e-11 -3.35998 
573 2 -1.16276 15.8538 -35.1 9.10637e-12 -3.35998 
574 2 4.00112 8.97262 -35.1 9.10637e-12 -3.35998 
575 2 1.7087 7.25232 -35.1 9.10637e-12 -3.35998 