ITEM: TIMESTEP
0
ITEM: NUMBER OF ATOMS
3300
ITEM: BOX BOUNDS xy xz yz pp pp ff
-3.4084375954624209e+00 1.4292900582777722e+01 -3.4344493317123668e+00
3.2816468944760757e-02 1.8868147792172056e+01 0.0000000000000000e+00
-1.2150000000000000e+02 1.2150000000000000e+02 0.0000000000000000e+00
ITEM: ATOMS id type x y z c_csym c_eng 
1 2 -0.220439 5.25975 5.38861 0.0352254 -3.34783 
2 2 1.45995 17.247 5.31374 0.0262329 -3.35527 
3 2 -0.809699 15.5451 5.30137 0.0234429 -3.35504 
4 2 0.33647 9.27729 5.34399 0.0193585 -3.34823 
5 2 9.46664 1.87949 5.33528 0.0305239 -3.35684 
6 2 5.53224 2.41664 5.37634 0.0564234 -3.36187 
7 2 7.18047 14.3949 5.33149 0.0366037 -3.34656 
8 2 6.59552 10.4297 5.33752 0.0250246 -3.34845 
9 2 4.33359 8.74494 5.35887 0.0401685 -3.35732 
10 2 8.55556 10.2016 3.31365 0.205164 -3.34898 
11 2 -0.925085 15.6522 1.21484 1.46353 -3.29853 
12 2 -2.84236 15.8395 3.25591 0.0467069 -3.32795 
13 2 6.0707 15.8348 -1.05919 4.56804 -3.2803 
14 2 0.0570716 7.27766 3.33588 0.266039 -3.32351 
15 2 13.7082 3.22941 3.46726 0.291536 -3.30143 
16 2 7.46691 2.15344 3.30259 0.0370086 -3.32393 
17 2 -0.552123 17.5351 3.32041 0.0807879 -3.33216 
18 2 2.91884 12.9381 3.30343 0.206898 -3.3368 
19 2 2.61064 10.984 1.12513 5.87593 -3.33664 
20 2 2.16633 6.92463 1.59292 6.11213 -3.24626 
21 2 6.06101 6.39954 1.50651 5.3186 -3.30149 
22 2 9.73954 18.0769 3.33859 0.167791 -3.33386 
23 2 7.42283 16.3671 3.32943 0.155788 -3.33675 
24 2 9.13056 14.1294 3.29547 0.0418452 -3.33113 
25 2 12.0233 5.55426 3.33891 0.167898 -3.33749 
26 2 4.91204 0.867186 -1.15443 6.6494 -3.30227 
27 2 2.20265 2.04484 -1.04563 4.72338 -3.30306 
28 2 1.21793 0.935497 3.38797 0.129551 -3.34353 
29 2 4.59215 10.7017 3.25326 0.0588569 -3.33005 
30 2 2.33416 9.00716 3.32309 0.210913 -3.32266 
31 2 -0.214753 5.07902 1.58761 5.78138 -3.2385 
32 2 -1.15266 13.5959 3.28279 0.197031 -3.34037 
33 2 10.8408 11.8994 3.30115 0.19563 -3.33924 
34 2 6.85444 12.4181 3.27837 0.0318664 -3.328 
35 2 10.3287 7.79581 3.33023 0.17475 -3.32498 
36 2 5.69697 18.7651 3.31218 0.200365 -3.33525 
37 2 3.43451 17.0326 3.31093 0.131065 -3.32991 
38 2 1.16352 15.3099 3.28441 0.172559 -3.34083 
39 2 8.07475 6.1337 3.37746 0.149933 -3.32526 
40 2 6.29604 8.47439 3.31704 0.177471 -3.35103 
41 2 7.14878 2.50989 -1.13713 6.80367 -3.30651 
42 2 9.39702 16.1448 1.1929 5.34451 -3.33622 
43 2 0.914515 13.2225 1.47997 5.78526 -3.3014 
44 2 5.44942 16.7163 1.45948 5.58007 -3.29156 
45 2 4.84274 12.7323 1.19856 5.40885 -3.32848 
46 2 5.16759 14.6772 3.32949 0.119558 -3.33612 
47 2 -1.408 11.5285 1.47745 5.72953 -3.30399 
48 2 0.652264 11.1991 3.31454 0.298559 -3.33001 
49 2 6.4869 10.5343 1.16802 6.23169 -3.29729 
50 2 4.24354 8.75432 1.24256 6.70206 -3.3068 
51 2 1.79559 4.95758 3.49154 0.104639 -3.3311 
52 2 7.70234 18.4096 1.49143 5.92506 -3.31002 
53 2 7.1383 14.403 1.19499 5.73137 -3.3366 
54 2 -1.61557 9.47532 3.30129 0.343554 -3.33559 
55 2 9.73027 3.84216 3.27217 0.0848922 -3.33748 
56 2 10.9873 16.4235 -1.24784 6.81857 -3.33767 
57 2 7.10226 0.256079 1.2232 0.850562 -3.27426 
58 2 1.39587 17.3625 1.19074 1.15421 -3.29478 
59 2 11.055 13.9479 1.17644 1.57377 -3.29722 
60 2 5.83415 4.4003 3.37706 0.129963 -3.32995 
61 2 4.11794 6.72241 3.47636 0.287603 -3.31298 
62 2 -2.55604 17.8418 1.20624 5.26606 -3.32735 
63 2 5.18921 0.420302 3.31909 0.0536122 -3.33828 
64 2 8.8097 12.2223 1.2354 6.52474 -3.29772 
65 2 7.7671 4.19086 1.24576 5.11414 -3.33077 
66 2 8.31772 8.12103 1.47248 5.72771 -3.29672 
67 2 6.41033 13.0096 -1.27099 6.4237 -3.3346 
68 2 1.75554 9.60314 -1.41465 8.10873 -3.36506 
69 2 0.272275 6.91588 -0.190309 11.4619 -3.02682 
70 2 3.81846 4.62016 1.54125 5.37881 -3.3148 
71 2 1.52628 2.92452 1.52503 5.40313 -3.31343 
72 2 3.18701 15.0205 1.45679 5.64903 -3.307 
73 2 12.3256 7.54504 1.21957 6.52138 -3.35049 
74 2 5.46584 2.44336 1.28931 4.94249 -3.30333 
75 2 3.18201 0.702054 1.23858 5.08125 -3.334 
76 2 8.69408 14.7014 -1.25599 6.6523 -3.33157 
77 2 4.12162 11.3039 -1.30994 6.20866 -3.33377 
78 2 0.396414 9.2778 1.14044 6.87679 -3.36125 
79 2 10.6053 9.82466 1.47048 5.55978 -3.3024 
80 2 3.53672 2.65177 3.40898 0.124338 -3.3442 
81 2 14.1516 0.405035 -1.04839 4.75623 -3.29858 
82 2 -3.00395 18.4354 -3.5657 0.406658 -3.32746 
83 2 6.34327 8.29206 -0.473652 5.93256 -3.27339 
84 2 11.5533 1.48274 -0.447366 5.15947 -3.27145 
85 2 5.7155 18.6846 -0.544326 10.418 -3.25407 
86 2 1.22027 15.2151 -0.457845 6.70804 -3.28393 
87 2 8.60404 10.0485 -0.44737 5.39474 -3.27132 
88 2 4.04665 6.59761 -0.436633 6.31136 -3.30028 
89 2 1.89289 4.79993 -0.434845 7.43005 -3.297 
90 2 10.0476 5.86607 1.19535 5.88059 -3.3406 
91 2 -0.927084 18.0799 -1.1888 7.5473 -3.31456 
92 2 -1.06242 13.4892 -0.449462 5.0348 -3.27823 
93 2 10.9167 11.7635 -0.490177 6.73029 -3.27106 
94 2 6.66133 5.46107 -1.01053 4.5968 -3.3058 
95 2 8.35746 17.5439 -1.03771 4.69295 -3.30592 
96 2 3.51893 17.0216 -0.555166 9.79344 -3.27228 
97 2 3.80661 14.1471 -1.06194 4.6784 -3.29519 
98 2 8.92425 7.2542 -1.02649 4.48359 -3.30087 
99 2 4.46162 3.7446 -1.03542 4.86967 -3.29221 
100 2 2.39362 4.08775 -3.04846 0.0807957 -3.3328 
101 2 1.51219 12.4471 -1.07751 4.66279 -3.29628 
102 2 -0.792689 10.7509 -1.07957 5.1968 -3.31302 
103 2 9.53587 1.83103 -2.33033 7.60535 -3.25343 
104 2 11.1677 13.8023 -2.30816 1.62311 -3.32751 
105 2 8.87068 12.0847 -2.30348 1.79824 -3.32876 
106 2 6.54058 10.3671 -2.27686 1.6375 -3.31615 
107 2 9.276 4.47558 -1.30384 6.013 -3.32799 
108 2 5.02369 2.99937 -3.55969 0.404136 -3.28697 
109 2 1.48371 17.2174 -2.34857 7.54231 -3.27109 
110 2 -0.834956 15.5234 -2.3147 1.98403 -3.326 
111 2 4.25783 8.64536 -2.28445 1.8961 -3.33014 
112 2 -0.70563 8.21156 -2.02825 12.0409 -3.05499 
113 2 6.31503 17.8585 -3.03836 7.19032 -3.2862 
114 2 11.4984 10.9557 -3.07335 0.191827 -3.32626 
115 2 9.13194 9.26874 -3.04553 0.0981615 -3.33345 
116 2 6.89033 7.54346 -3.03125 0.095546 -3.32726 
117 2 12.0931 0.706663 -3.03438 0.124256 -3.3215 
118 2 4.07875 16.1316 -3.04368 6.96088 -3.26928 
119 2 1.80634 14.4114 -3.04601 0.0745805 -3.31131 
120 2 2.01491 6.93735 -2.35529 2.47239 -3.34838 
121 2 -0.196632 5.22707 -2.39094 2.57613 -3.34266 
122 2 11.7967 3.61144 -2.22226 1.99994 -3.33719 
123 2 6.6772 15.0434 -3.60717 0.320637 -3.32929 
124 2 9.47208 6.44418 -3.61527 0.297242 -3.34378 
125 2 7.27136 4.71417 -3.5652 0.344628 -3.31298 
126 2 8.94211 16.7231 -3.57662 0.351065 -3.34189 
127 2 4.42641 13.3344 -3.57162 0.316274 -3.33414 
128 2 2.13279 11.6343 -3.60313 0.283888 -3.34354 
129 2 4.66319 5.80245 -2.98708 0.0613654 -3.32196 
130 2 2.74141 1.30165 -3.58632 0.430773 -3.31053 
131 2 0.117384 2.40982 -3.02639 0.0970352 -3.3141 
132 2 6.91708 12.3313 -4.27417 0.129319 -3.3402 
133 2 12.0423 5.50876 -4.29377 0.210593 -3.34721 
134 2 9.81836 3.76938 -4.27961 0.16601 -3.32881 
135 2 7.51973 1.99567 -4.18697 6.99147 -3.31821 
136 2 9.20316 14.0546 -4.2938 0.1593 -3.34154 
137 2 4.61393 10.6251 -4.30385 0.13113 -3.34432 
138 2 2.3304 8.92981 -4.33859 0.120841 -3.34262 
139 2 0.0382771 7.20674 -4.45533 0.279016 -3.3469 
140 2 5.26485 0.346709 -4.2254 7.48245 -3.31118 
141 2 -0.49718 17.4726 -4.31148 0.304368 -3.3381 
142 2 7.14459 9.57029 -4.97892 0.0387227 -3.36603 
143 2 12.3639 2.73188 -4.96228 0.0578702 -3.36587 
144 2 10.0531 1.02037 -5.01058 0.111686 -3.33104 
145 2 4.32219 18.131 -4.95062 7.51118 -3.32829 
146 2 9.46251 11.2737 -4.99571 0.0214891 -3.35679 
147 2 4.87087 7.84117 -4.99214 0.0393426 -3.36317 
148 2 2.63673 6.14968 -4.99899 0.0315716 -3.36016 
149 2 0.382364 4.45305 -5.03317 0.0453201 -3.34251 
150 2 2.08803 16.3867 -5.0045 0.0813552 -3.33256 
151 2 7.44759 6.75662 -5.64062 0.0716443 -3.3465 
152 2 9.23062 18.7502 -5.63221 0.0707221 -3.35812 
153 2 6.92365 17.0667 -5.63329 0.0363527 -3.35408 
154 2 4.65932 15.3441 -5.62011 0.0560722 -3.34258 
155 2 9.7145 8.50632 -5.69309 0.0418372 -3.32327 
156 2 5.22581 5.07248 -5.62734 0.034808 -3.35078 
157 2 2.97884 3.35956 -5.65737 0.0541071 -3.35208 
158 2 0.686214 1.66701 -5.6294 0.0503943 -3.36232 
159 2 2.38286 13.6512 -5.65335 0.0186765 -3.3569 
160 2 12.0234 10.2522 -5.70409 0.0513489 -3.36519 
161 2 7.76668 4.0424 -6.29818 0.0293416 -3.34975 
162 2 9.49056 16.0467 -6.31958 0.024182 -3.3357 
163 2 7.20899 14.3158 -6.32026 0.0178148 -3.34032 
164 2 4.91559 12.6294 -6.30502 0.0194785 -3.34273 
165 2 10.0134 5.78528 -6.30509 0.0484106 -3.33526 
166 2 5.49759 2.35174 -6.29804 0.0556772 -3.32865 
167 2 3.25874 0.632636 -6.30877 0.0279599 -3.34329 
168 2 2.64422 10.9244 -6.33037 0.00930184 -3.33883 
169 2 0.359165 9.21595 -6.39993 0.0394403 -3.36103 
170 2 12.3221 7.48106 -6.38931 0.0550299 -3.35576 
171 2 8.09027 1.29443 -6.97753 0.042316 -3.35118 
172 2 9.77042 13.3039 -6.98459 0.0100478 -3.35998 
173 2 7.48563 11.5914 -6.97755 0.0124882 -3.36944 
174 2 5.19076 9.85318 -6.99805 0.0150392 -3.36876 
175 2 10.3336 3.02187 -6.97417 0.0136119 -3.35965 
176 2 2.36366 18.451 -6.97995 0.0223336 -3.36185 
177 2 0.0754071 16.7253 -6.9844 0.0169737 -3.36056 
178 2 -2.19576 15.0114 -6.9817 0.0150283 -3.35654 
179 2 2.90832 8.15799 -7.00829 0.0144984 -3.35993 
180 2 12.6155 4.74995 -6.98373 0.0233321 -3.36269 
181 2 4.92119 17.3951 -7.6315 0.0163295 -3.3655 
182 2 10.0529 10.5475 -7.6918 0.0177506 -3.36562 
183 2 7.75034 8.81154 -7.64506 0.024872 -3.35762 
184 2 5.49165 7.08145 -7.68233 0.0356613 -3.35699 
185 2 10.6503 0.25248 -7.65971 0.0258816 -3.35904 
186 2 2.63637 15.698 -7.66698 0.0250122 -3.36096 
187 2 0.375269 13.9698 -7.7101 0.0447549 -3.36102 
188 2 -1.90677 12.2563 -7.67901 0.0202578 -3.36171 
189 2 3.20218 5.39622 -7.66643 0.019807 -3.36588 
190 2 5.19082 14.645 -8.31859 0.0172543 -3.35096 
191 2 10.2907 7.7788 -8.34721 0.0279842 -3.35521 
192 2 8.03515 6.06153 -8.31888 0.0122033 -3.35178 
193 2 5.75861 4.32595 -8.32179 0.0305521 -3.35038 
194 2 7.46914 16.3283 -8.33225 0.0194127 -3.35416 
195 2 2.94728 12.9384 -8.32729 0.0258504 -3.34832 
196 2 0.641455 11.2204 -8.34385 0.0200155 -3.34794 
197 2 -1.67759 9.51696 -8.42487 0.110516 -3.35906 
198 2 3.49171 2.61825 -8.33668 0.0262723 -3.34637 
199 2 1.21185 0.922294 -8.34531 0.0289286 -3.35241 
200 2 9.77305 18.0436 -8.31083 0.0138674 -3.35065 
201 2 5.47324 11.8887 -8.98865 0.0107506 -3.36378 
202 2 10.6262 5.02605 -8.99196 0.0180134 -3.35189 
203 2 8.34926 3.33401 -8.97437 0.0127596 -3.35556 
204 2 6.07689 1.60482 -8.96863 0.0220959 -3.3449 
205 2 7.77574 13.598 -8.99017 0.00609018 -3.35055 
206 2 3.1886 10.1869 -9.02647 0.0302913 -3.35605 
207 2 0.922819 8.46252 -9.0433 0.0192665 -3.35271 
208 2 12.8746 6.74806 -9.03299 0.0243087 -3.36287 
209 2 0.353488 18.7269 -8.99246 0.0108323 -3.35465 
210 2 10.0668 15.2808 -8.98176 0.0249575 -3.3653 
211 2 5.75842 9.12695 -9.65565 0.0206641 -3.35695 
212 2 10.9074 2.30955 -9.65885 0.0199342 -3.35511 
213 2 8.60317 0.58944 -9.64116 0.0326832 -3.36407 
214 2 2.89369 17.6768 -9.66972 0.0166539 -3.36015 
215 2 8.04495 10.8561 -9.6659 0.00837798 -3.36321 
216 2 3.50336 7.42627 -9.6602 0.0328064 -3.36092 
217 2 13.1905 3.97308 -9.65851 0.0163666 -3.35469 
218 2 0.639226 15.9693 -9.69061 0.0166287 -3.35922 
219 2 -1.64236 14.2511 -9.67503 0.0193691 -3.36085 
220 2 10.3477 12.5456 -9.69261 0.0138025 -3.3652 
221 2 6.06896 6.38545 -10.3449 0.0220106 -3.35915 
222 2 7.74654 18.3698 -10.3259 0.00972747 -3.36693 
223 2 5.46609 16.6453 -10.3119 0.013954 -3.35461 
224 2 3.19874 14.928 -10.3326 0.0060809 -3.3492 
225 2 8.32248 8.11962 -10.3372 0.0281928 -3.35521 
226 2 3.78665 4.6515 -10.354 0.0194059 -3.36308 
227 2 1.50712 2.95791 -10.3593 0.0372934 -3.34873 
228 2 13.4778 1.2444 -10.3102 0.0190151 -3.36003 
229 2 0.954357 13.1836 -10.3573 0.0623202 -3.35365 
230 2 10.6087 9.81644 -10.3682 0.0162569 -3.3549 
231 2 6.34934 3.61743 -10.9896 0.00894545 -3.35465 
232 2 8.05462 15.5971 -10.9946 0.0183837 -3.3528 
233 2 5.80401 13.9035 -10.9857 0.047234 -3.35376 
234 2 3.49742 12.175 -11.0111 0.0122084 -3.35257 
235 2 8.61759 5.35087 -11.0111 0.0151588 -3.35772 
236 2 4.08068 1.91207 -10.9872 0.028211 -3.35609 
237 2 1.76338 0.204835 -10.9945 0.0212297 -3.36374 
238 2 10.316 17.3168 -10.985 0.0128161 -3.36784 
239 2 1.22099 10.4546 -11.018 0.0283178 -3.35639 
240 2 -1.08172 8.74314 -11.0134 0.0274055 -3.35829 
241 2 10.8662 7.04068 -11.0115 0.0337312 -3.35261 
242 2 6.61122 0.872819 -11.6769 0.0104064 -3.36583 
243 2 8.33758 12.8562 -11.6835 0.0121311 -3.35015 
244 2 6.0675 11.132 -11.6598 0.0290123 -3.35458 
245 2 3.79624 9.42413 -11.7259 0.0818742 -3.35527 
246 2 8.92321 2.61118 -11.667 0.0221092 -3.36475 
247 2 0.888695 17.9897 -11.6789 0.00971828 -3.36629 
248 2 1.50835 7.69614 -11.6688 0.0290508 -3.35929 
249 2 -0.787278 6.00222 -11.6944 0.0285495 -3.35241 
250 2 11.2249 4.32406 -11.6517 0.0824981 -3.35176 
251 2 3.45713 16.9242 -12.3535 0.027227 -3.36122 
252 2 8.62657 10.1104 -12.3752 0.0185287 -3.36008 
253 2 6.33651 8.38543 -12.3585 0.00865297 -3.36062 
254 2 4.04508 6.65328 -12.3525 0.0161803 -3.36379 
255 2 5.74134 18.6623 -12.3152 0.0172134 -3.36469 
256 2 1.18128 15.2137 -12.3471 0.0106492 -3.3594 
257 2 10.9057 11.8492 -12.3954 0.04693 -3.36686 
258 2 1.75098 4.9184 -12.3734 0.0511059 -3.35211 
259 2 -0.527112 3.25123 -12.3334 0.0182007 -3.35082 
260 2 11.4517 1.55616 -12.3558 0.0313042 -3.3574 
261 2 3.76089 14.1717 -12.9695 0.0485447 -3.35784 
262 2 8.89793 7.35827 -13.0117 0.0181775 -3.34921 
263 2 6.62923 5.62478 -13.0208 0.00514867 -3.35605 
264 2 4.34855 3.90254 -13.0267 0.0110705 -3.35467 
265 2 6.03536 15.9219 -12.9746 0.0424469 -3.35554 
266 2 1.47325 12.4657 -13.0432 0.0270045 -3.35077 
267 2 -0.807901 10.7845 -13.0625 0.033081 -3.36332 
268 2 11.1744 9.04215 -13.0325 0.0160432 -3.36255 
269 2 8.30659 17.612 -12.9956 0.0103756 -3.35351 
270 2 4.03532 11.457 -13.6827 0.0350006 -3.35569 
271 2 9.19427 4.59416 -13.6902 0.00972966 -3.36081 
272 2 6.90837 2.89479 -13.6815 0.0111898 -3.35317 
273 2 4.60587 1.19119 -13.688 0.0222305 -3.35097 
274 2 6.32062 13.1215 -13.6618 0.0394263 -3.36422 
275 2 1.74673 9.71649 -13.6913 0.0213427 -3.36176 
276 2 11.4587 6.29411 -13.6965 0.0186743 -3.35599 
277 2 10.8594 16.558 -13.6735 0.0186339 -3.35945 
278 2 8.55437 14.8633 -13.702 0.07253 -3.35265 
279 2 4.31472 8.67273 -14.35 0.0176101 -3.3556 
280 2 9.44352 1.82698 -14.3526 0.0246912 -3.35913 
281 2 7.16065 0.141431 -14.3538 0.0222387 -3.36419 
282 2 1.44051 17.2584 -14.3362 0.0325262 -3.35886 
283 2 6.60862 10.3839 -14.3745 0.0121157 -3.36776 
284 2 2.0516 6.93349 -14.3428 0.0360337 -3.36067 
285 2 -0.24826 5.28625 -14.3566 0.0424016 -3.3574 
286 2 11.7663 3.52721 -14.361 0.0385008 -3.35987 
287 2 11.158 13.8266 -14.3662 0.0103275 -3.35602 
288 2 8.87397 12.108 -14.3697 0.0139121 -3.3622 
289 2 4.63064 5.93799 -15.0398 0.0281591 -3.35793 
290 2 6.31114 17.8966 -15.0161 0.0241576 -3.35708 
291 2 4.04731 16.1859 -15.0061 0.0217063 -3.36227 
292 2 1.76054 14.4556 -15.016 0.0290145 -3.35332 
293 2 6.90633 7.60026 -15.034 0.0451414 -3.36688 
294 2 2.33768 4.19301 -15.0297 0.0172421 -3.36044 
295 2 0.0223989 2.50856 -15.0322 0.0189145 -3.36727 
296 2 11.9905 0.776767 -14.9927 0.0592359 -3.35111 
297 2 -0.530102 12.8042 -15.0384 0.0236004 -3.35084 
298 2 11.4691 11.062 -15.0682 0.0287439 -3.35762 
299 2 9.17561 9.34225 -15.0591 0.0172603 -3.35874 
300 2 4.90821 3.17579 -15.702 0.00957532 -3.36591 
301 2 6.61175 15.1638 -15.6686 0.0264989 -3.35934 
302 2 4.32149 13.4567 -15.6988 0.0172687 -3.35979 
303 2 2.04111 11.7298 -15.7005 0.00893363 -3.35868 
304 2 7.20383 4.87023 -15.7034 0.0226424 -3.35573 
305 2 2.60431 1.45306 -15.6733 0.0217956 -3.3513 
306 2 -3.13105 18.5845 -15.6959 0.0148138 -3.36707 
307 2 8.89821 16.8689 -15.6802 0.0406325 -3.34816 
308 2 11.7287 8.33571 -15.6935 0.0395161 -3.36124 
309 2 9.4887 6.59689 -15.6962 0.0182248 -3.3541 
310 2 5.16503 0.415312 -16.3587 0.0141111 -3.36412 
311 2 6.87172 12.3957 -16.3979 0.0359957 -3.35917 
312 2 4.59629 10.6819 -16.3721 0.0123201 -3.36078 
313 2 2.32264 8.94824 -16.3603 0.0216924 -3.36298 
314 2 7.486 2.13145 -16.3813 0.0336165 -3.35456 
315 2 -0.526935 17.5574 -16.3635 0.0260794 -3.35726 
316 2 -2.81868 15.8254 -16.3986 0.033932 -3.36552 
317 2 9.16946 14.127 -16.3863 0.0210626 -3.35848 
318 2 0.0458055 7.28634 -16.3872 0.0209211 -3.35573 
319 2 12.0655 5.57557 -16.3909 0.0407188 -3.3591 
320 2 9.7638 3.88016 -16.3717 0.0342235 -3.35937 
321 2 2.04399 16.4697 -16.9983 0.0469962 -3.36388 
322 2 7.1871 9.66613 -17.0595 0.0185076 -3.34596 
323 2 4.90109 7.93435 -17.0214 0.014405 -3.35448 
324 2 2.61662 6.19207 -17.0512 0.0287146 -3.35791 
325 2 4.29731 18.2276 -17.0054 0.0247628 -3.35358 
326 2 11.7219 13.0688 -17.0501 0.0184404 -3.36032 
327 2 9.44953 11.3772 -17.0515 0.00776619 -3.35853 
328 2 12.2977 2.78172 -17.0536 0.0376858 -3.36034 
329 2 10.0217 1.11009 -17.0292 0.0177474 -3.34904 
330 2 2.34248 13.7389 -17.7037 0.0169928 -3.35013 
331 2 7.47855 6.92062 -17.7206 0.0253102 -3.35375 
332 2 5.16368 5.17667 -17.7187 0.0124475 -3.35604 
333 2 2.89224 3.44873 -17.7216 0.0134642 -3.36198 
334 2 4.59936 15.4765 -17.68 0.00968135 -3.34989 
335 2 12.0481 10.3362 -17.7294 0.0318606 -3.35175 
336 2 9.72942 8.61351 -17.7308 0.0198326 -3.35348 
337 2 0.618812 1.74355 -17.7172 0.0316281 -3.35787 
338 2 12.5715 0.074639 -17.7024 0.0226927 -3.36052 
339 2 6.87518 17.2181 -17.6816 0.0361651 -3.3584 
340 2 2.58739 11.0047 -18.3863 0.0253935 -3.36485 
341 2 7.73316 4.17217 -18.3765 0.0260021 -3.36445 
342 2 5.46575 2.38971 -18.396 0.0653472 -3.35612 
343 2 3.14719 0.718935 -18.3851 0.0200361 -3.35612 
344 2 4.87308 12.7113 -18.3793 0.0161695 -3.35214 
345 2 12.3188 7.57752 -18.3946 0.00962353 -3.35923 
346 2 10.0315 5.87734 -18.3977 0.0079921 -3.36201 
347 2 -2.55138 17.8406 -18.3663 0.0158028 -3.35498 
348 2 9.40074 16.1509 -18.3548 0.0620787 -3.35397 
349 2 7.15784 14.4659 -18.3719 0.0374687 -3.3621 
350 2 2.89288 8.23298 -19.0192 0.0227595 -3.36251 
351 2 8.00027 1.37919 -19.0365 0.0143071 -3.35337 
352 2 2.27942 18.4848 -19.0505 0.0322923 -3.36076 
353 2 0.0159425 16.7878 -19.0372 0.0121031 -3.35944 
354 2 5.17853 9.95449 -19.0097 0.0331083 -3.35981 
355 2 0.600125 6.5292 -19.0396 0.0139655 -3.35299 
356 2 12.6143 4.8124 -19.058 0.0246344 -3.35287 
357 2 10.3084 3.11332 -19.0511 0.00955429 -3.36546 
358 2 -2.25032 15.1169 -19.0667 0.0290852 -3.3609 
359 2 9.72065 13.3941 -19.0788 0.0287144 -3.35939 
360 2 7.47303 11.6868 -19.0453 0.0204945 -3.35968 
361 2 3.16993 5.48974 -19.728 0.00865645 -3.35712 
362 2 4.85248 17.4765 -19.6928 0.0120573 -3.36128 
363 2 2.6008 15.7529 -19.7137 0.00880133 -3.36029 
364 2 0.305575 14.0227 -19.719 0.0295923 -3.37624 
365 2 5.44376 7.1969 -19.7026 0.0127853 -3.35643 
366 2 0.870744 3.79389 -19.7251 0.0119343 -3.34263 
367 2 12.891 2.0949 -19.7495 0.0487274 -3.35385 
368 2 10.5679 0.370555 -19.7146 0.0120507 -3.35731 
369 2 -1.98675 12.3418 -19.7181 0.02319 -3.35572 
370 2 10.0299 10.6046 -19.7357 0.0422311 -3.35672 
371 2 7.74388 8.91263 -19.7126 0.0134744 -3.3535 
372 2 3.41982 2.74546 -20.4018 0.0195196 -3.35393 
373 2 5.15567 14.7207 -20.3752 0.00776347 -3.35302 
374 2 2.91269 13.0174 -20.3775 0.0395092 -3.35104 
375 2 0.579403 11.282 -20.3852 0.0219848 -3.36114 
376 2 5.71059 4.44835 -20.3632 0.033973 -3.36051 
377 2 9.73299 18.1338 -20.3942 0.0597074 -3.36602 
378 2 7.40603 16.4432 -20.3851 0.0332577 -3.35224 
379 2 -1.66697 9.60584 -20.3908 0.024619 -3.3517 
380 2 10.3191 7.87564 -20.3966 0.0181456 -3.3572 
381 2 8.01841 6.16794 -20.4084 0.0135325 -3.36046 
382 2 0.277959 18.8298 -21.045 0.0102912 -3.35246 
383 2 5.44626 11.9782 -21.0482 0.00522746 -3.35459 
384 2 3.14468 10.2481 -21.0585 0.0177288 -3.36944 
385 2 0.892005 8.53529 -21.056 0.0172077 -3.35479 
386 2 5.99085 1.70493 -21.045 0.0146514 -3.35873 
387 2 10.0029 15.4495 -21.0544 0.0519882 -3.35496 
388 2 7.7424 13.7074 -21.0542 0.0163261 -3.35682 
389 2 12.8558 6.83725 -21.0747 0.0115149 -3.36471 
390 2 10.5848 5.11236 -21.0871 0.0209428 -3.36304 
391 2 8.27893 3.3953 -21.0564 0.0145214 -3.36476 
392 2 0.586853 16.0724 -21.7048 0.0188661 -3.3563 
393 2 5.73042 9.23123 -21.7132 0.00780476 -3.37056 
394 2 3.44818 7.51233 -21.7278 0.00907912 -3.35654 
395 2 2.85421 17.7658 -21.7389 0.0256788 -3.35755 
396 2 -1.69987 14.3635 -21.7577 0.0320557 -3.36186 
397 2 10.3192 12.6625 -21.7127 0.0464193 -3.35115 
398 2 8.00333 10.9564 -21.7178 0.0125597 -3.35472 
399 2 13.1534 4.10618 -21.7355 0.0128668 -3.34796 
400 2 10.8518 2.37195 -21.738 0.0122166 -3.36834 
401 2 8.56354 0.638707 -21.7012 0.0314718 -3.35142 
402 2 0.894084 13.3101 -22.402 0.0199001 -3.36174 
403 2 6.02478 6.49353 -22.3864 0.0335403 -3.35729 
404 2 3.71318 4.77244 -22.4172 0.0146017 -3.36027 
405 2 3.14653 15.0373 -22.3961 0.0136015 -3.35374 
406 2 -1.41255 11.6158 -22.4248 0.0187094 -3.35559 
407 2 10.5565 9.92435 -22.3994 0.0303036 -3.35932 
408 2 8.29043 8.20398 -22.4279 0.0252802 -3.35806 
409 2 7.70912 18.4857 -22.3714 0.0416011 -3.357 
410 2 5.43846 16.7403 -22.3747 0.0112739 -3.36026 
411 2 1.12793 10.5697 -23.0838 0.0331051 -3.35845 
412 2 6.27865 3.7233 -23.0814 0.0210046 -3.36234 
413 2 3.99161 1.99557 -23.0787 0.0213759 -3.36183 
414 2 1.72747 0.287341 -23.0416 0.0274749 -3.35493 
415 2 3.43697 12.2933 -23.0652 0.0122853 -3.35721 
416 2 -1.12871 8.84669 -23.0728 0.0142871 -3.36441 
417 2 10.8438 7.16725 -23.0809 0.018846 -3.35765 
418 2 8.55241 5.42005 -23.0714 0.0254329 -3.35728 
419 2 10.2655 17.4382 -23.0668 0.0186129 -3.35594 
420 2 8.0116 15.7031 -23.0681 0.0126914 -3.36228 
421 2 5.71599 13.9817 -23.0478 0.019835 -3.35941 
422 2 1.42737 7.80613 -23.7111 0.0319403 -3.35115 
423 2 6.58332 0.975612 -23.701 0.0454845 -3.35922 
424 2 0.860016 18.0922 -23.7336 0.00919102 -3.36171 
425 2 -1.41548 16.3919 -23.7284 0.00976399 -3.36283 
426 2 3.69112 9.53551 -23.7437 0.0252917 -3.36475 
427 2 -0.846322 6.09457 -23.779 0.0412988 -3.35025 
428 2 11.1401 4.41663 -23.7611 0.0239062 -3.36201 
429 2 8.84505 2.69336 -23.7779 0.0487136 -3.35884 
430 2 10.5776 14.6599 -23.7379 0.0160571 -3.36486 
431 2 8.27905 12.9494 -23.7197 0.0175574 -3.35428 
432 2 6.00296 11.2711 -23.7179 0.0267727 -3.36336 
433 2 1.70958 5.08339 -24.4236 0.0173819 -3.35545 
434 2 3.45093 17.0432 -24.4044 0.0171995 -3.36 
435 2 1.16177 15.3137 -24.4001 0.0213201 -3.35933 
436 2 4.00997 6.79038 -24.3952 0.0201629 -3.34775 
437 2 13.6793 3.36339 -24.4032 0.0204669 -3.35739 
438 2 11.4147 1.61477 -24.451 0.0687866 -3.36143 
439 2 5.71832 18.7827 -24.3829 0.0370357 -3.35824 
440 2 10.8407 11.9194 -24.415 0.0139493 -3.35808 
441 2 8.5667 10.2243 -24.4184 0.0133996 -3.35602 
442 2 6.27531 8.48376 -24.4191 0.0144347 -3.36029 
443 2 1.98521 2.31652 -25.0869 0.0151026 -3.36118 
444 2 3.71363 14.309 -25.0975 0.0221352 -3.35771 
445 2 1.47383 12.5756 -25.0978 0.0531502 -3.35236 
446 2 4.24745 4.04813 -25.0505 0.0472102 -3.35664 
447 2 13.9964 0.6224 -25.0618 0.0283967 -3.35246 
448 2 8.28143 17.7134 -25.0768 0.0200763 -3.35479 
449 2 6.03313 16.02 -25.0788 0.0285096 -3.3688 
450 2 11.1208 9.14732 -25.0826 0.0126913 -3.35797 
451 2 8.83098 7.46476 -25.0792 0.0106534 -3.35872 
452 2 6.5469 5.72831 -25.0825 0.0155015 -3.3564 
453 2 -1.12754 18.4131 -25.7551 0.0272737 -3.36101 
454 2 4.00735 11.547 -25.7482 0.0126781 -3.3565 
455 2 1.68921 9.79115 -25.7457 0.046905 -3.35302 
456 2 -0.594565 8.124 -25.732 0.0213695 -3.35093 
457 2 4.57888 1.28003 -25.7424 0.0189148 -3.35752 
458 2 10.8392 16.7071 -25.7244 0.0320894 -3.36584 
459 2 8.60054 14.9338 -25.7468 0.0596469 -3.34957 
460 2 6.30279 13.2681 -25.7573 0.0193312 -3.36313 
461 2 11.398 6.41527 -25.7575 0.00700823 -3.35386 
462 2 9.12681 4.70969 -25.7566 0.0111302 -3.35408 
463 2 6.84117 2.97127 -25.7457 0.0144498 -3.34762 
464 2 4.27195 8.78707 -26.4014 0.0123518 -3.35248 
465 2 1.97872 7.07581 -26.4124 0.00721122 -3.3568 
466 2 -0.315207 5.35498 -26.4485 0.02617 -3.35913 
467 2 1.42157 17.3149 -26.3932 0.0493271 -3.35308 
468 2 11.1488 13.9291 -26.4212 0.0137265 -3.35789 
469 2 8.84666 12.2122 -26.4237 0.00562552 -3.35143 
470 2 6.53841 10.5199 -26.4412 0.02395 -3.35569 
471 2 11.6729 3.6526 -26.4362 0.0121878 -3.36159 
472 2 9.40715 1.93906 -26.4362 0.0131808 -3.35873 
473 2 7.1098 0.215071 -26.3995 0.0324195 -3.36466 
474 2 -0.565609 12.8865 -27.0929 0.0133468 -3.359 
475 2 4.53424 6.04862 -27.0825 0.0162642 -3.35986 
476 2 2.23811 4.33169 -27.0736 0.01775 -3.36005 
477 2 -0.0200551 2.60305 -27.0853 0.00665995 -3.35892 
478 2 1.7197 14.5947 -27.1142 0.0314463 -3.3595 
479 2 11.4255 11.1477 -27.0884 0.0238028 -3.36503 
480 2 9.08252 9.48381 -27.0993 0.0433681 -3.36252 
481 2 6.82696 7.76772 -27.0783 0.0125705 -3.35714 
482 2 11.9917 0.884684 -27.0992 0.00946897 -3.34792 
483 2 6.27598 18.0417 -27.0952 0.0219289 -3.35943 
484 2 4.01018 16.3194 -27.0759 0.0246418 -3.34962 
485 2 -0.298988 10.1135 -27.7305 0.0162507 -3.35285 
486 2 4.81679 3.27621 -27.732 0.0182706 -3.36072 
487 2 2.54372 1.56883 -27.7698 0.0144447 -3.36028 
488 2 -3.16111 18.6937 -27.7497 0.00944037 -3.35376 
489 2 1.9875 11.812 -27.7438 0.0370004 -3.35503 
490 2 9.3855 6.71836 -27.7861 0.0180276 -3.36155 
491 2 7.11374 4.9963 -27.738 0.0106941 -3.35228 
492 2 8.83588 16.9702 -27.7468 0.0119936 -3.36416 
493 2 6.54447 15.2848 -27.76 0.0179686 -3.35295 
494 2 4.26356 13.5693 -27.7729 0.0120002 -3.35873 
495 2 5.12768 0.521029 -28.4047 0.0181353 -3.35506 
496 2 -0.572516 17.6483 -28.4176 0.018734 -3.36043 
497 2 2.27554 9.09235 -28.4059 0.0183789 -3.35573 
498 2 11.9393 5.65897 -28.4595 0.0242662 -3.35537 
499 2 9.68286 3.94918 -28.4235 0.0138474 -3.35988 
500 2 7.39385 2.27038 -28.4166 0.031678 -3.36195 
501 2 9.13182 14.212 -28.4282 0.00826271 -3.36173 
502 2 6.85691 12.5502 -28.4296 0.0490771 -3.35895 
503 2 4.54091 10.8209 -28.4107 0.0183349 -3.35373 
504 2 0.225914 4.60903 -29.1332 0.048177 -3.35088 
505 2 1.97829 16.6197 -29.0824 0.0131515 -3.35849 
506 2 -0.319935 14.9026 -29.0835 0.0267617 -3.35393 
507 2 11.685 13.1525 -29.0981 0.0118341 -3.35903 
508 2 2.54124 6.32178 -29.1002 0.019003 -3.36032 
509 2 12.2561 2.88468 -29.1292 0.0149953 -3.36102 
510 2 9.99232 1.18022 -29.1253 0.0250148 -3.36221 
511 2 4.25033 18.3084 -29.1065 0.0236686 -3.36239 
512 2 9.39906 11.4465 -29.124 0.0238228 -3.35955 
513 2 7.10248 9.77566 -29.1218 0.0121492 -3.35779 
514 2 4.8161 8.06593 -29.1019 0.0206999 -3.36772 
515 2 2.25116 13.8742 -29.7906 0.0268742 -3.36145 
516 2 2.80459 3.58614 -29.7644 0.0214309 -3.35732 
517 2 12.5533 0.12885 -29.7545 0.0202343 -3.35718 
518 2 6.80752 17.2743 -29.7849 0.0130994 -3.3551 
519 2 4.55198 15.5873 -29.7916 0.018777 -3.35539 
520 2 9.68285 8.7317 -29.7972 0.0274512 -3.35416 
521 2 7.40675 7.00495 -29.7667 0.0144614 -3.36472 
522 2 5.13142 5.27623 -29.7203 0.0737998 -3.36122 
523 2 -2.58906 17.9304 -30.4059 0.030956 -3.36536 
524 2 2.56782 11.1178 -30.4175 0.0445373 -3.3543 
525 2 0.255233 9.36631 -30.4263 0.00870219 -3.36593 
526 2 12.2215 7.66406 -30.4191 0.0260389 -3.35081 
527 2 3.10465 0.836016 -30.4475 0.0232033 -3.35218 
528 2 9.38469 16.2208 -30.4475 0.0121792 -3.36207 
529 2 7.08921 14.5304 -30.4343 0.0178754 -3.35633 
530 2 4.81052 12.8225 -30.4466 0.0139933 -3.3618 
531 2 9.96844 5.95191 -30.4614 0.0159371 -3.34908 
532 2 7.68885 4.27716 -30.4325 0.0268532 -3.35906 
533 2 5.36984 2.54199 -30.4438 0.0317713 -3.36552 
534 2 -2.29533 15.1705 -31.1089 0.0192967 -3.359 
535 2 2.78806 8.34008 -31.098 0.0275187 -3.36363 
536 2 0.524462 6.60676 -31.1059 0.017081 -3.35287 
537 2 12.514 4.90428 -31.1313 0.0107515 -3.35295 
538 2 -0.00322747 16.9147 -31.1178 0.0419329 -3.35112 
539 2 9.6782 13.4573 -31.1132 0.00998678 -3.36025 
540 2 7.37018 11.7699 -31.1357 0.0181187 -3.36024 
541 2 5.11802 10.0674 -31.1092 0.0202588 -3.35737 
542 2 10.2416 3.18398 -31.1321 0.0153704 -3.3603 
543 2 7.97001 1.50996 -31.1027 0.0169372 -3.36499 
544 2 2.25036 18.6611 -31.0828 0.0754787 -3.35564 
545 2 -2.03297 12.4326 -31.7936 0.0171421 -3.35303 
546 2 3.11602 5.57835 -31.7663 0.0175059 -3.35763 
547 2 0.833219 3.87157 -31.7668 0.0205228 -3.34525 
548 2 12.8501 2.14185 -31.8038 0.0282023 -3.36768 
549 2 0.243721 14.1482 -31.7742 0.013947 -3.35413 
550 2 9.9521 10.724 -31.7971 0.00832933 -3.35753 
551 2 7.66819 9.01335 -31.7898 0.00444819 -3.35594 
552 2 5.36236 7.29112 -31.7717 0.0241047 -3.36089 
553 2 10.5567 0.442659 -31.8073 0.016157 -3.36405 
554 2 4.83315 17.5872 -31.8234 0.0334363 -3.36111 
555 2 2.53802 15.8781 -31.789 0.00644791 -3.36417 
556 2 12.4954 9.66562 -32.4391 0.021002 -3.35452 
557 2 3.38464 2.84588 -32.4753 0.0374193 -3.35675 
558 2 9.68158 18.203 -32.452 0.0199089 -3.35835 
559 2 0.567674 11.3752 -32.435 0.0488552 -3.36197 
560 2 10.2261 7.93695 -32.4677 0.0266108 -3.36328 
561 2 7.94283 6.28071 -32.4725 0.0380345 -3.3594 
562 2 5.68672 4.54448 -32.4557 0.015181 -3.36343 
563 2 7.3715 16.5234 -32.4668 0.00750568 -3.34809 
564 2 5.10876 14.8206 -32.4725 0.0077344 -3.35126 
565 2 2.82441 13.1069 -32.4791 0.0249626 -3.35958 
566 2 12.8045 6.91559 -33.1085 0.00887478 -3.35607 
567 2 3.67937 0.0409634 -33.0898 0.0572348 -3.35556 
568 2 -2.05207 17.1529 -33.1147 0.0364613 -3.35447 
569 2 9.9205 15.4733 -33.089 0.0502517 -3.34745 
570 2 0.768182 8.61555 -33.1024 0.0686646 -3.34759 
571 2 10.5258 5.18021 -33.1175 0.0340242 -3.35888 
572 2 8.25001 3.50347 -33.1208 0.0136592 -3.3594 
573 2 5.97869 1.79599 -33.1357 0.0234072 -3.36892 
574 2 7.64427 13.7837 -33.1185 0.0190244 -3.3621 
575 2 5.37949 12.039 -33.1436 0.0206258 -3.35251 
576 2 3.08423 10.3384 -33.1089 0.0193656 -3.3581 
577 2 0.515014 16.1429 -33.7597 0.0419002 -3.35511 
578 2 10.222 12.729 -33.7858 0.0105527 -3.35946 
579 2 10.8079 2.43716 -33.8314 0.0194303 -3.35719 
580 2 8.53176 0.747211 -33.8288 0.0116201 -3.35834 
581 2 2.81644 17.856 -33.8109 0.0168482 -3.36201 
582 2 7.92692 11.0052 -33.8184 0.0160173 -3.36018 
583 2 5.6553 9.28935 -33.7901 0.00736312 -3.35816 
584 2 3.37297 7.58891 -33.7812 0.00772795 -3.35943 
585 2 13.3557 1.39266 -34.4666 0.0339834 -3.3539 
586 2 0.7835 13.4107 -34.4631 0.0364509 -3.36851 
587 2 10.5309 9.96823 -34.4821 0.0186191 -3.36422 
588 2 7.6627 18.5381 -34.5031 0.0212557 -3.35212 
589 2 5.38113 16.833 -34.4802 0.00786226 -3.35053 
590 2 3.10906 15.1139 -34.4767 0.0200793 -3.36042 