ITEM: TIMESTEP
0
ITEM: NUMBER OF ATOMS
4413
ITEM: BOX BOUNDS xy xz yz pp pp ff
7.3668516748532182e-03 1.7878773511392666e+01 1.8246087536577709e-03
8.1685212199860639e-03 2.1036248790741819e+01 0.0000000000000000e+00
-1.0125000000000000e+02 1.0125000000000000e+02 0.0000000000000000e+00
ITEM: ATOMS id type x y z c_csym c_eng 
1 2 4.81709 9.28565 -86.0953 3.24721e-05 -3.35983 
2 2 6.19464 16.2744 -81.3171 8.40499e-05 -3.35996 
3 2 16.5029 16.2736 -81.7155 5.43905e-05 -3.36012 
4 2 5.96508 13.9212 -76.9354 2.90821e-05 -3.35994 
5 2 1.15346 13.9248 -78.1304 3.73474e-05 -3.35987 
6 2 9.40589 20.986 -90.8666 0.00101699 -3.3616 
7 2 0.45363 21.0355 -96.0737 22.5449 -3.05571 
8 2 0.920322 4.60303 -84.1024 3.03975e-05 -3.35989 
9 2 3.44112 9.26277 -80.5192 2.78423e-05 -3.35989 
10 2 13.5217 6.95178 -86.8912 3.41599e-05 -3.36049 
11 2 13.3038 18.6534 -92.8637 0.00450702 -3.35365 
12 2 0.235908 18.6095 -81.3169 2.95182e-05 -3.36025 
13 2 9.62705 9.28288 -84.9013 3.10945e-05 -3.36004 
14 2 0.468014 13.9542 -85.694 3.88172e-05 -3.35968 
15 2 13.5195 20.9299 -76.5381 3.08083e-05 -3.35982 
16 2 17.1868 9.27605 -84.5021 5.27818e-05 -3.35999 
17 2 17.1776 9.32505 -94.7996 0.0292536 -3.28533 
18 2 8.48016 4.60668 -83.7062 3.44838e-05 -3.35986 
19 2 11.0047 2.29385 -90.4784 0.000495263 -3.36238 
20 2 6.42032 4.61502 -85.6961 3.61864e-05 -3.3598 
21 2 16.2702 6.91532 -77.3306 1.09496e-05 -3.36009 
22 2 1.63061 11.6471 -97.1724 37.6737 -2.78112 
23 2 8.24996 2.24932 -79.3237 1.58361e-05 -3.3599 
24 2 12.8362 20.9618 -84.1049 2.91141e-05 -3.36012 
25 2 5.49974 2.24656 -78.5259 1.77744e-05 -3.35991 
26 2 9.17498 18.6379 -86.4906 9.68296e-05 -3.36067 
27 2 4.36503 18.6391 -87.6802 6.67106e-05 -3.36009 
28 2 6.42466 18.6327 -85.6922 6.08643e-05 -3.35973 
29 2 2.06756 2.2731 -85.2946 4.94656e-05 -3.35993 
30 2 17.4181 11.5899 -78.5277 3.4169e-05 -3.35996 
31 2 5.96177 6.91244 -76.932 1.20444e-05 -3.36001 
32 2 5.97484 6.94839 -97.5413 44.8056 -2.64251 
33 2 5.04618 18.6064 -80.1208 2.08582e-05 -3.36002 
34 2 11.2337 4.65637 -94.8624 7.70064 -3.24323 
35 2 16.9616 13.9313 -80.1223 4.24536e-05 -3.36018 
36 2 4.35954 4.62071 -87.6848 7.46203e-05 -3.36013 
37 2 16.2736 20.9738 -87.6856 8.51479e-05 -3.35974 
38 2 11.9206 11.6284 -87.2869 4.4425e-05 -3.36012 
39 2 0.238347 18.6498 -91.6524 0.00144367 -3.35774 
40 2 8.94614 9.30616 -92.4714 0.00712553 -3.36235 
41 2 8.71252 6.9595 -88.0859 0.000106353 -3.35922 
42 2 1.84124 20.9843 -91.2561 0.00105908 -3.35656 
43 2 12.6114 18.6478 -90.0765 0.000399365 -3.36209 
44 2 15.5819 6.94178 -84.8998 4.7011e-05 -3.36012 
45 2 1.37888 9.26801 -82.511 5.19712e-05 -3.35976 
46 2 12.3796 16.2953 -85.6948 3.72326e-05 -3.35987 
47 2 14.9062 13.9762 -92.4586 0.00532113 -3.3606 
48 2 14.4227 2.29524 -94.0366 0.0266296 -3.31459 
49 2 8.94902 2.29747 -92.4701 0.00795673 -3.36138 
50 2 12.3696 16.3653 -96.0772 22.5935 -3.05607 
51 2 3.4388 2.25507 -80.5173 2.07917e-05 -3.36006 
52 2 0.477852 13.9844 -96.0094 15.5299 -3.13605 
53 2 13.2909 4.5978 -82.5121 2.64789e-05 -3.36002 
54 2 16.0405 4.60025 -83.3071 1.28333e-05 -3.35994 
55 2 16.0444 18.618 -83.3074 2.36397e-05 -3.35997 
56 2 10.7708 21.0278 -96.4359 23.3715 -2.94336 
57 2 1.84954 13.9735 -91.2539 0.00188395 -3.36049 
58 2 4.60335 13.973 -92.0722 0.00903221 -3.36165 
59 2 15.5869 13.9515 -84.8989 2.5882e-05 -3.36014 
60 2 12.6062 4.62533 -90.0791 0.00043085 -3.362 
61 2 1.60584 4.57615 -76.5335 1.7994e-05 -3.36019 
62 2 8.25843 2.29313 -89.679 0.000554796 -3.3629 
63 2 15.1217 2.23762 -76.1383 1.67347e-05 -3.36016 
64 2 12.3674 2.35975 -96.0796 14.7221 -3.04824 
65 2 11.6945 2.30003 -93.2655 0.00737268 -3.34319 
66 2 3.90313 13.9281 -78.9269 3.42577e-05 -3.36018 
67 2 10.7764 13.9613 -86.0941 7.00499e-05 -3.35972 
68 2 15.1252 9.28507 -86.491 4.36928e-05 -3.3599 
69 2 2.52531 13.9769 -94.0174 0.0160895 -3.32402 
70 2 6.86528 9.32678 -94.4354 0.0268606 -3.31664 
71 2 2.2984 11.5933 -79.324 2.27128e-05 -3.3599 
72 2 4.12777 2.26658 -83.3046 2.94625e-05 -3.35994 
73 2 17.8756 2.27894 -87.2867 5.98014e-05 -3.36016 
74 2 12.8373 13.9502 -84.1021 3.28984e-05 -3.36014 
75 2 0.232273 4.59299 -81.315 1.26302e-05 -3.36008 
76 2 0.695112 16.2671 -79.7249 4.14761e-05 -3.36019 
77 2 15.6018 21.0019 -95.2263 7.7513 -3.20082 
78 2 17.4162 18.6002 -78.5289 1.12761e-05 -3.36 
79 2 8.95471 16.3124 -92.4669 0.00892377 -3.36167 
80 2 8.71376 13.9233 -77.7303 2.42516e-05 -3.36001 
81 2 14.6715 18.6408 -88.0825 9.26454e-05 -3.36027 
82 2 1.60905 4.61426 -86.8889 4.58456e-05 -3.36073 
83 2 9.86573 18.6462 -89.2798 0.000524255 -3.36173 
84 2 10.5446 11.6033 -81.7144 2.70271e-05 -3.35996 
85 2 8.47998 18.6511 -94.0219 0.0133711 -3.32359 
86 2 4.8143 9.35541 -96.4535 14.6941 -3.0373 
87 2 15.1334 9.3361 -96.8018 23.3292 -2.93565 
88 2 1.63711 4.64579 -97.1625 45.1682 -2.67006 
89 2 8.48351 11.6132 -83.7058 2.04186e-05 -3.35985 
90 2 7.56691 9.29102 -86.8929 6.57769e-05 -3.36037 
91 2 13.0649 2.28678 -88.4849 0.000100834 -3.35908 
92 2 8.70976 20.9329 -77.7325 4.86691e-05 -3.35994 
93 2 6.42337 11.622 -85.6973 3.90006e-05 -3.35969 
94 2 1.39022 16.3192 -92.8438 0.00530007 -3.3604 
95 2 17.8702 2.24145 -76.9343 3.7074e-05 -3.35992 
96 2 8.71651 20.9811 -88.0828 0.000185313 -3.35939 
97 2 13.7536 9.30033 -91.2587 0.000935379 -3.36163 
98 2 7.57271 16.3013 -86.8875 9.91953e-05 -3.36068 
99 2 9.17154 11.6261 -86.4928 4.64131e-05 -3.3598 
100 2 10.7767 20.9728 -86.0947 6.61911e-05 -3.35972 
101 2 11.2317 11.6166 -84.5015 2.46556e-05 -3.36015 
102 2 9.20321 4.66331 -96.8146 31.0684 -2.82573 
103 2 15.1563 16.3394 -96.795 31.2711 -2.90014 
104 2 12.8232 6.96646 -94.4185 0.0280839 -3.28546 
105 2 1.38372 16.2769 -82.5117 7.01831e-05 -3.35996 
106 2 4.14072 16.3157 -93.6219 0.0134524 -3.3316 
107 2 2.98142 4.59782 -82.1108 2.09305e-05 -3.35983 
108 2 17.8759 9.28623 -87.287 9.10482e-05 -3.36057 
109 2 9.6408 2.31147 -95.2408 7.88253 -3.21486 
110 2 5.74421 11.6471 -93.2623 0.00671185 -3.34303 
111 2 5.50771 9.29752 -88.8813 0.000112618 -3.35966 
112 2 0.688838 2.25003 -79.7215 5.22148e-05 -3.3598 
113 2 14.6703 11.5879 -77.7299 1.67468e-05 -3.35992 
114 2 11.4598 6.91717 -78.5272 3.3701e-05 -3.36001 
115 2 5.51368 16.3063 -88.8735 0.000323701 -3.35952 
116 2 9.16829 4.57193 -76.1367 1.91338e-05 -3.35984 
117 2 7.33489 6.93576 -82.5114 2.46745e-05 -3.35994 
118 2 16.9582 6.95827 -90.4677 0.000365221 -3.3619 
119 2 5.26686 21.0091 -94.7939 0.0297406 -3.28318 
120 2 3.68967 18.6668 -95.2117 7.72916 -3.24221 
121 2 6.43052 18.6754 -96.0014 15.5866 -3.1259 
122 2 14.437 2.26682 -83.7061 1.74802e-05 -3.3599 
123 2 14.4325 16.3174 -94.0304 0.0149501 -3.32269 
124 2 2.08877 16.3229 -95.582 7.66841 -3.19227 
125 2 0.923839 11.6099 -84.1042 6.95885e-05 -3.36022 
126 2 10.0937 20.9917 -93.6361 0.0080953 -3.33062 
127 2 12.3754 9.28409 -85.6969 6.97095e-05 -3.35988 
128 2 9.39802 20.9455 -80.5197 1.05929e-05 -3.36015 
129 2 2.75 2.24368 -77.7289 3.23656e-05 -3.36005 
130 2 5.50647 2.28934 -88.876 0.00016592 -3.35876 
131 2 3.44544 9.30136 -90.867 0.000386929 -3.36296 
132 2 13.5511 6.98443 -97.168 45.2762 -2.66992 
133 2 13.296 4.62847 -92.8645 0.00454459 -3.34834 
134 2 5.28686 14.0026 -94.8564 7.62473 -3.24554 
135 2 13.7493 2.25427 -80.9194 3.79413e-05 -3.35986 
136 2 0.243494 11.6365 -91.6484 0.00220158 -3.35618 
137 2 9.86086 11.6353 -89.277 0.000104855 -3.35939 
138 2 7.58861 2.29948 -97.1764 38.0211 -2.77988 
139 2 4.13907 9.30805 -93.6446 0.00529265 -3.34011 
140 2 7.79229 4.59333 -80.9171 1.254e-05 -3.36021 
141 2 17.4213 18.6424 -88.875 0.000161909 -3.35945 
142 2 13.0647 9.25198 -78.1272 5.45757e-05 -3.36006 
143 2 11.0018 9.26068 -80.1207 1.0388e-05 -3.36004 
144 2 1.83958 6.96099 -91.2585 0.000774396 -3.3605 
145 2 2.52909 13.9462 -83.706 3.0789e-05 -3.36012 
146 2 5.96743 20.9754 -87.2844 2.66183e-05 -3.36018 
147 2 11.9177 18.5943 -76.9367 2.43921e-05 -3.35982 
148 2 10.7734 7.02661 -96.4547 23.1194 -2.95716 
149 2 9.63917 9.31911 -95.2349 7.67671 -3.2414 
150 2 1.61293 11.6228 -86.8903 0.000116018 -3.3605 
151 2 2.98471 11.6034 -82.1139 4.27009e-05 -3.36017 
152 2 13.5336 20.9755 -97.1565 44.3146 -2.64489 
153 2 15.8136 9.25601 -78.9251 1.0395e-05 -3.35989 
154 2 2.75503 9.25176 -77.7295 1.67546e-05 -3.35995 
155 2 14.2149 13.9722 -89.6728 0.000171404 -3.36157 
156 2 8.02305 6.94954 -85.2997 6.54468e-05 -3.35969 
157 2 6.19248 2.29617 -91.655 0.00192585 -3.35827 
158 2 15.603 13.9967 -95.2158 7.79282 -3.24084 
159 2 7.56755 9.24644 -76.5346 1.48898e-05 -3.35978 
160 2 3.23259 21.0142 -96.789 31.2403 -2.90021 
161 2 2.3047 11.6323 -89.6741 0.000459767 -3.36146 
162 2 14.6694 11.629 -88.0806 6.55401e-05 -3.35984 
163 2 11.4623 13.9262 -78.5276 2.44453e-05 -3.35996 
164 2 5.73102 4.60228 -82.9076 2.66725e-05 -3.35995 
165 2 10.5517 4.62961 -92.0809 0.00876145 -3.36163 
166 2 8.04354 21.0002 -95.602 7.80433 -3.19421 
167 2 8.94339 16.279 -82.1127 3.28608e-05 -3.35997 
168 2 11.9185 4.6196 -87.2912 7.76224e-05 -3.35988 
169 2 17.6582 13.9791 -93.2361 0.00301422 -3.35116 
170 2 5.74466 18.6537 -93.2354 0.00298128 -3.35193 
171 2 3.89859 6.92034 -78.9238 1.58037e-05 -3.36001 
172 2 12.3748 9.32772 -96.011 15.5984 -3.12307 
173 2 5.5059 16.2635 -78.5293 2.96351e-05 -3.3599 
174 2 6.20433 16.31 -91.6506 0.00298006 -3.35534 
175 2 7.11104 11.5879 -78.1286 0.00010005 -3.35989 
176 2 9.40474 13.9773 -90.8704 0.00042953 -3.36254 
177 2 10.5466 11.6421 -92.0558 0.00233277 -3.35769 
178 2 1.61427 18.6334 -86.8857 2.68469e-05 -3.36031 
179 2 15.3581 18.6485 -90.8682 0.000424293 -3.36222 
180 2 5.26592 6.98773 -94.806 0.0271649 -3.28397 
181 2 17.4161 4.61913 -88.878 0.000160002 -3.35921 
182 2 14.8943 6.93141 -82.1127 3.33753e-05 -3.36017 
183 2 9.16762 18.5912 -76.1397 4.20393e-05 -3.3601 
184 2 13.5253 20.9733 -86.8912 4.54034e-05 -3.3603 
185 2 16.7313 11.6192 -86.0918 4.38621e-05 -3.3598 
186 2 6.64756 20.9433 -79.7218 5.89959e-05 -3.36011 
187 2 10.3211 16.3053 -87.6854 0.000112843 -3.35975 
188 2 0.913346 11.6403 -94.4105 0.027637 -3.31311 
189 2 2.76225 16.3015 -88.0782 0.000103955 -3.35919 
190 2 2.75562 2.28395 -88.0812 6.28223e-05 -3.36071 
191 2 10.5451 18.6142 -81.7153 1.41106e-05 -3.3601 
192 2 6.65306 6.96543 -90.0754 0.000333253 -3.36177 
193 2 9.6472 16.3326 -95.2273 7.78194 -3.20257 
194 2 13.9788 4.60931 -85.2989 1.49544e-05 -3.35977 
195 2 16.0422 18.6516 -93.6497 0.00651526 -3.34327 
196 2 16.5042 2.28932 -92.0772 0.00765489 -3.36227 
197 2 13.9732 4.64574 -95.6504 15.631 -3.13502 
198 2 14.9 6.96145 -92.4653 0.00681279 -3.36278 
199 2 16.7407 4.67851 -96.4347 23.5815 -2.94556 
200 2 2.99766 11.638 -92.4647 0.0078454 -3.36173 
201 2 3.90602 20.9807 -89.2702 0.000176077 -3.35928 
202 2 13.5253 13.9623 -86.8879 2.5248e-05 -3.36032 
203 2 0.925336 18.6215 -84.103 4.42552e-05 -3.3599 
204 2 7.56191 2.23771 -76.5356 1.76808e-05 -3.35991 
205 2 11.9217 11.5843 -76.9328 2.16433e-05 -3.35993 
206 2 3.44282 2.2931 -90.8645 0.000404615 -3.36221 
207 2 14.8971 20.9503 -82.1141 4.40546e-05 -3.35984 
208 2 2.99251 18.6509 -92.4534 0.00469868 -3.36162 
209 2 9.17027 4.61896 -86.4951 0.000102994 -3.36024 
210 2 4.81835 2.35885 -96.4422 14.7274 -3.0384 
211 2 3.21209 6.91076 -76.1344 1.98199e-05 -3.36007 
212 2 17.6487 13.9419 -82.9102 5.46716e-05 -3.35981 
213 2 7.11593 18.6435 -88.4769 0.000173129 -3.35944 
214 2 4.36315 11.628 -87.6871 4.9263e-05 -3.36002 
215 2 10.3166 2.2872 -87.6893 0.00011225 -3.36009 
216 2 13.2933 11.6055 -82.5103 3.39494e-05 -3.35975 
217 2 6.88318 16.288 -84.103 4.19149e-05 -3.35964 
218 2 13.7504 9.26365 -80.9175 1.80994e-05 -3.36007 
219 2 12.6066 18.6041 -79.7252 4.30459e-05 -3.36022 
220 2 16.9608 20.9832 -90.4721 0.000574223 -3.36284 
221 2 11.2337 18.6277 -84.502 2.27235e-05 -3.36 
222 2 5.05321 18.647 -90.4613 0.000203879 -3.36264 
223 2 7.79983 4.63291 -91.265 0.0014283 -3.35967 
224 2 4.58743 20.9505 -81.7133 3.2064e-05 -3.35997 
225 2 13.3017 11.6445 -92.8549 0.00736919 -3.36309 
226 2 7.61058 9.29851 -97.1826 37.3499 -2.77932 
227 2 0.914982 18.671 -94.4151 0.0300109 -3.31611 
228 2 10.0834 6.93952 -83.3081 2.36312e-05 -3.35996 
229 2 8.93867 9.26989 -82.113 4.48311e-05 -3.36011 
230 2 3.89787 20.9395 -78.9257 2.51196e-05 -3.36022 
231 2 3.67025 4.60893 -84.8984 9.14979e-06 -3.35999 
232 2 12.1495 13.9373 -81.3163 3.95744e-05 -3.35998 
233 2 6.19045 9.26596 -81.3164 2.28451e-05 -3.36002 
234 2 5.97681 20.9705 -97.5325 45.0147 -2.64394 
235 2 16.0538 11.6412 -93.6339 0.00914392 -3.34075 
236 2 0.460075 6.99117 -96.0071 15.6181 -3.12167 
237 2 17.414 4.58291 -78.5262 9.41183e-06 -3.35993 
238 2 6.65813 13.9724 -90.075 0.000477667 -3.36238 
239 2 0.01554 9.29068 -97.5349 44.7541 -2.64337 
240 2 11.2257 11.6612 -94.8011 0.0288455 -3.28217 
241 2 4.1213 2.29703 -93.6506 0.010802 -3.34516 
242 2 13.753 2.29042 -91.2677 0.00141705 -3.35659 
243 2 1.83769 20.9475 -80.917 3.26158e-05 -3.36005 
244 2 2.29325 4.58666 -79.3226 2.32186e-05 -3.36007 
245 2 10.9995 2.25099 -80.122 4.53938e-05 -3.36001 
246 2 5.05248 11.6379 -90.4757 0.000513227 -3.36201 
247 2 15.3584 11.6369 -90.8613 0.000367647 -3.36309 
248 2 17.1872 16.3294 -94.7914 0.02921 -3.28257 
249 2 12.6072 11.5948 -79.7216 1.69907e-05 -3.36009 
250 2 13.9809 11.6174 -85.2968 2.2576e-05 -3.35987 
251 2 0.466308 20.9653 -85.6937 4.33972e-05 -3.35968 
252 2 5.73456 11.6078 -82.9102 4.10532e-05 -3.36002 
253 2 10.558 18.6491 -92.0755 0.00853723 -3.36238 
254 2 11.6919 16.2824 -82.9088 1.79129e-05 -3.35983 
255 2 2.07219 16.2898 -85.2959 3.15627e-05 -3.35945 
256 2 1.38826 9.3003 -92.8544 0.00788145 -3.3606 
257 2 6.87287 16.3132 -94.4079 0.0314433 -3.28404 
258 2 13.5849 13.9697 -97.1696 36.8206 -2.78173 
259 2 4.58846 6.9663 -92.0523 0.00193645 -3.35644 
260 2 13.9882 18.6586 -95.6447 15.5201 -3.14336 
261 2 11.4595 20.9358 -78.5292 3.85019e-05 -3.35976 
262 2 1.14892 6.91823 -78.1268 2.89777e-05 -3.36007 
263 2 7.11255 11.6329 -88.4835 6.85541e-05 -3.35943 
264 2 2.06262 2.30806 -95.6478 15.4948 -3.14531 
265 2 15.1294 16.2967 -86.4896 3.76239e-05 -3.35993 
266 2 16.7333 18.6305 -86.0918 2.73269e-05 -3.35966 
267 2 0.039909 16.2896 -97.529 44.8509 -2.64449 
268 2 2.75611 16.2607 -77.7322 1.89049e-05 -3.36015 
269 2 6.65218 13.9312 -79.7226 3.02177e-05 -3.35997 
270 2 4.35748 18.5962 -77.334 1.58335e-05 -3.35999 
271 2 9.63162 16.2927 -84.8992 2.24471e-05 -3.35957 
272 2 2.75688 9.29154 -88.0832 3.67316e-05 -3.35999 
273 2 16.9565 6.92413 -80.1196 2.34018e-05 -3.35986 
274 2 16.4982 2.25773 -81.7147 1.65048e-05 -3.36015 
275 2 8.02722 20.9697 -85.2966 6.0791e-05 -3.35984 
276 2 0.232234 4.62295 -91.6564 0.00233079 -3.35771 
277 2 3.21268 6.95013 -86.4917 3.12944e-05 -3.35978 
278 2 10.0875 13.9483 -83.3073 4.0043e-05 -3.35989 
279 2 11.2294 4.60875 -84.504 4.60039e-05 -3.35999 
280 2 9.17215 11.581 -76.1355 4.18302e-05 -3.35988 
281 2 15.5997 6.98102 -95.2275 7.7638 -3.2323 
282 2 14.2088 20.9398 -79.3267 2.17579e-05 -3.35989 
283 2 15.3563 11.5969 -80.519 1.70229e-05 -3.35974 
284 2 5.04663 4.62849 -90.4692 0.000363733 -3.36241 
285 2 2.29816 4.62207 -89.6749 0.000307494 -3.36183 
286 2 9.85653 18.601 -78.9276 4.34527e-05 -3.35988 
287 2 2.29601 18.6029 -79.325 2.83994e-05 -3.36012 
288 2 5.96326 6.95605 -87.29 7.2984e-05 -3.36017 
289 2 0.462607 6.94504 -85.6951 2.3415e-05 -3.35995 
290 2 15.1267 16.256 -76.1392 1.17499e-05 -3.36002 
291 2 10.0853 13.9799 -93.6556 0.00772985 -3.34211 
292 2 5.04717 11.5959 -80.1209 3.47689e-05 -3.36021 
293 2 10.3113 2.24044 -77.3337 3.07137e-05 -3.35987 
294 2 15.8152 16.2644 -78.9282 3.28522e-05 -3.35993 
295 2 11.9229 18.6404 -87.2887 0.000132636 -3.36033 
296 2 2.09208 9.31583 -95.61 7.74906 -3.205 
297 2 14.2147 20.9807 -89.6792 0.000325183 -3.36103 
298 2 3.21869 6.99743 -96.8068 23.4183 -2.93408 
299 2 4.80752 16.3795 -96.4327 22.5341 -2.9581 
300 2 5.73866 4.63479 -93.2471 0.00427321 -3.35003 
301 2 11.9467 11.6271 -97.5391 45.0634 -2.64334 
302 2 5.50404 9.25444 -78.5267 1.61924e-05 -3.35999 
303 2 8.71024 6.91424 -77.7295 2.85994e-05 -3.3601 
304 2 12.1453 6.92921 -81.3164 3.11344e-05 -3.36002 
305 2 12.6098 11.6368 -90.0716 0.00017317 -3.36207 
306 2 11.0041 16.2692 -80.1217 2.56338e-05 -3.35988 
307 2 11.917 4.57545 -76.934 1.59002e-05 -3.35998 
308 2 3.21535 13.9204 -76.1387 6.69921e-05 -3.36002 
309 2 8.47327 11.6433 -94.0419 0.0150624 -3.32462 
310 2 3.45177 16.3094 -90.8572 0.00127675 -3.36154 
311 2 7.79588 11.6008 -80.9172 2.81894e-05 -3.36011 
312 2 15.354 4.62256 -90.8701 0.00066371 -3.36106 
313 2 14.6667 4.61855 -88.0852 7.64638e-05 -3.35983 
314 2 16.2703 6.95124 -87.6851 9.52414e-05 -3.36001 
315 2 9.19125 11.6672 -96.8045 31.3811 -2.89807 
316 2 5.04247 4.58992 -80.1185 3.53768e-05 -3.3599 
317 2 17.1925 2.31286 -94.8509 7.75411 -3.24373 
318 2 7.56576 16.3215 -97.1555 45.0257 -2.65835 
319 2 16.5023 9.29809 -92.0473 0.00228462 -3.35658 
320 2 17.4211 11.6289 -88.8738 0.000184103 -3.35912 
321 2 3.20869 20.9293 -76.1373 7.29146e-05 -3.36021 
322 2 2.517 6.96715 -94.0273 0.00784574 -3.33261 
323 2 3.67359 11.6157 -84.902 7.59717e-05 -3.36009 
324 2 0.010855 16.2985 -87.2846 3.83021e-05 -3.36027 
325 2 8.48506 18.6244 -83.7052 3.31557e-05 -3.36002 
326 2 5.27287 6.94434 -84.5022 4.79291e-05 -3.35998 
327 2 12.8326 6.94148 -84.1045 2.81707e-05 -3.36012 
328 2 8.2574 9.30042 -89.6804 0.000419865 -3.36129 
329 2 16.7284 4.60998 -86.093 3.60229e-05 -3.35993 
330 2 0.700786 16.3086 -90.0652 0.000113994 -3.36183 
331 2 0.91003 4.62703 -94.4089 0.0318653 -3.2845 
332 2 1.61161 11.585 -76.5357 3.85822e-05 -3.3601 
333 2 15.1258 2.27724 -86.4928 2.0999e-05 -3.36046 
334 2 14.2086 6.92171 -79.3238 2.5181e-05 -3.36006 
335 2 9.85461 4.58294 -78.9256 1.94704e-05 -3.35996 
336 2 10.5418 4.59594 -81.7152 1.49073e-05 -3.36015 
337 2 8.93808 2.26262 -82.1123 1.8153e-05 -3.36011 
338 2 14.0076 11.6514 -95.5991 7.63569 -3.20202 
339 2 7.56733 2.2846 -86.8911 0.000114524 -3.36048 
340 2 3.68684 4.65441 -95.2235 7.6467 -3.23293 
341 2 6.40428 11.6942 -96.0854 22.5618 -3.05679 
342 2 10.7931 14.0272 -96.4373 14.9757 -3.02647 
343 2 10.3173 16.2587 -77.3332 5.23382e-05 -3.36018 
344 2 10.7722 6.95122 -86.0967 5.33001e-05 -3.35963 
345 2 11.4655 20.982 -88.8812 0.00016372 -3.35965 
346 2 13.9838 18.629 -85.2979 2.20237e-05 -3.3601 
347 2 17.8756 16.258 -76.9362 2.39584e-05 -3.35983 
348 2 1.67581 18.6361 -97.1625 36.9849 -2.78234 
349 2 14.4414 16.2841 -83.705 1.36905e-05 -3.35985 
350 2 4.1341 16.2828 -83.3065 3.63546e-05 -3.35999 
351 2 9.86064 4.62728 -89.2855 0.000703978 -3.36132 
352 2 15.8152 9.2941 -89.2726 0.000167673 -3.35949 
353 2 17.6548 20.9884 -93.2533 0.00622596 -3.34153 
354 2 9.19893 18.6691 -96.8023 31.4744 -2.82727 
355 2 8.02939 13.9884 -95.6539 15.4089 -3.14543 
356 2 5.2773 20.9645 -84.4996 5.53494e-05 -3.36015 
357 2 12.8233 21.0042 -94.427 0.0283527 -3.28649 
358 2 7.33666 20.9553 -82.5093 4.07843e-05 -3.36003 
359 2 16.2683 20.9333 -77.3346 4.60708e-05 -3.36006 
360 2 6.4299 4.64454 -96.0237 15.5816 -3.13295 
361 2 3.67533 18.626 -84.896 4.93139e-05 -3.35999 
362 2 2.06701 9.28027 -85.298 3.31896e-05 -3.35977 
363 2 5.73538 18.6191 -82.9069 3.21815e-05 -3.35981 
364 2 4.81717 2.27932 -86.0916 4.30921e-05 -3.35993 
365 2 13.0659 16.2612 -78.131 3.84084e-05 -3.35988 
366 2 11.6873 2.26499 -82.91 2.162e-05 -3.35989 
367 2 17.6484 6.96384 -93.2429 0.00423983 -3.35074 
368 2 4.12845 9.27306 -83.3077 2.28968e-05 -3.35994 
369 2 7.79577 18.6109 -80.9183 2.97419e-05 -3.36008 
370 2 16.5037 16.3139 -92.047 0.00219482 -3.35728 
371 2 12.604 4.58612 -79.7229 2.37267e-05 -3.36024 
372 2 3.25025 14.0112 -96.8016 31.3016 -2.82819 
373 2 13.7537 16.2717 -80.9185 2.8085e-05 -3.35993 
374 2 1.15429 20.9759 -88.4763 0.000179808 -3.35972 
375 2 8.03853 6.98007 -95.6072 7.7672 -3.19318 
376 2 4.58518 6.93195 -81.7132 1.41071e-05 -3.36004 
377 2 6.64733 6.92417 -79.7212 3.12813e-05 -3.36004 
378 2 11.0041 9.30085 -90.4718 0.000301912 -3.36208 
379 2 2.51576 20.9898 -94.0268 0.0152363 -3.32452 
380 2 0.235336 11.5992 -81.3173 5.83858e-05 -3.36008 
381 2 5.27983 13.9512 -84.5022 4.92261e-05 -3.36 
382 2 2.98754 4.62724 -92.4623 0.00628578 -3.36144 
383 2 8.71728 13.9693 -88.084 8.31472e-05 -3.36067 
384 2 10.0903 6.97143 -93.6413 0.00941626 -3.33102 
385 2 11.2447 18.6714 -94.854 7.61467 -3.2441 
386 2 15.81 2.24733 -78.9269 1.48412e-05 -3.35989 
387 2 15.3563 18.6067 -80.5213 2.87833e-05 -3.35982 
388 2 3.91021 13.9688 -89.278 0.000610972 -3.36191 
389 2 10.3161 9.29469 -87.6879 0.000132832 -3.35997 
390 2 9.40132 13.9351 -80.519 3.05487e-05 -3.36011 
391 2 16.4992 9.26558 -81.7144 2.98151e-05 -3.3599 
392 2 11.6954 9.30671 -93.2466 0.00295554 -3.3507 
393 2 8.47516 4.63481 -94.031 0.0145727 -3.32458 
394 2 12.1484 20.9484 -81.3181 4.02977e-05 -3.36 
395 2 9.40138 6.96601 -90.872 0.000958276 -3.36168 
396 2 4.59116 13.9391 -81.7161 8.24456e-05 -3.36011 
397 2 3.21923 13.9592 -86.4911 6.33547e-05 -3.36054 
398 2 7.33899 13.9439 -82.5106 3.89769e-05 -3.35972 
399 2 11.7025 16.3179 -93.2567 0.00659927 -3.34105 
400 2 1.83555 6.92807 -80.9162 3.17339e-05 -3.35993 
401 2 14.9043 20.9845 -92.4709 0.00781014 -3.36094 
402 2 7.80008 11.6403 -91.266 0.000790226 -3.3573 
403 2 7.56681 16.2556 -76.5373 2.44301e-05 -3.36002 
404 2 4.5902 20.9883 -92.0458 0.00229205 -3.35689 
405 2 8.2549 16.2668 -79.3247 1.77703e-05 -3.36001 
406 2 11.4609 6.95959 -88.8818 0.000114177 -3.35959 
407 2 16.7211 11.7064 -96.451 22.0423 -3.05091 
408 2 7.10691 18.5986 -78.1302 1.83799e-05 -3.35984 
409 2 9.85875 11.5915 -78.9249 1.85653e-05 -3.35984 
410 2 5.9594 20.9308 -76.9345 2.14148e-05 -3.35998 
411 2 11.4654 13.9713 -88.8782 5.79039e-05 -3.35934 
412 2 17.8763 9.24994 -76.9318 2.50212e-05 -3.35994 
413 2 12.1521 13.9784 -91.659 0.00120218 -3.35769 
414 2 1.14862 20.9362 -78.1301 1.99755e-05 -3.35989 
415 2 6.18763 2.25861 -81.3146 4.17786e-05 -3.36014 
416 2 4.36065 11.5866 -77.3315 3.19618e-05 -3.36009 
417 2 1.84152 13.934 -80.9186 6.09569e-05 -3.36023 
418 2 14.8992 13.9393 -82.1131 4.62302e-05 -3.35999 
419 2 16.0292 4.62773 -93.6477 0.00961252 -3.33496 
420 2 0.692312 2.28709 -90.0735 0.000675862 -3.36219 
421 2 17.1925 16.2861 -84.5012 5.53715e-05 -3.35975 
422 2 15.1618 2.30796 -96.8012 37.6956 -2.79038 
423 2 9.62676 2.27629 -84.9011 5.56579e-05 -3.35992 
424 2 2.52349 6.93833 -83.7051 3.40332e-05 -3.35983 
425 2 11.0079 16.3139 -90.4724 0.000608818 -3.36259 
426 2 13.7561 16.3132 -91.2607 0.000907619 -3.35745 
427 2 1.15137 6.95446 -88.4788 9.66767e-05 -3.3599 
428 2 10.3166 9.24898 -77.3312 2.20681e-05 -3.36011 
429 2 1.60719 18.5941 -76.5379 2.69781e-05 -3.36004 
430 2 11.6881 9.27235 -82.9088 1.28747e-05 -3.35992 
431 2 14.2121 13.929 -79.3244 2.40224e-05 -3.36029 
432 2 12.1504 6.96401 -91.6599 0.00172526 -3.3553 
433 2 13.0647 9.29411 -88.4802 8.82311e-05 -3.35987 
434 2 15.5866 20.9635 -84.8997 4.24441e-05 -3.36003 
435 2 17.644 6.93431 -82.9084 1.60319e-05 -3.36001 
436 2 7.34091 6.9752 -92.8621 0.00752945 -3.36081 
437 2 2.30365 18.644 -89.6686 0.000120733 -3.36174 
438 2 8.02877 13.9574 -85.2971 4.96938e-05 -3.35986 
439 2 12.8282 13.9982 -94.4224 0.0279758 -3.31656 
440 2 16.0422 11.6068 -83.3068 7.8418e-05 -3.3597 
441 2 15.8185 16.3074 -89.271 0.000240982 -3.35949 
442 2 5.96875 13.9642 -87.2881 7.46158e-05 -3.36039 
443 2 13.0688 16.3066 -88.4798 0.000109901 -3.35963 
444 2 3.2169 20.9705 -86.4875 5.12723e-05 -3.35995 
445 2 13.2945 18.6164 -82.5124 2.88573e-05 -3.35999 
446 2 1.15859 13.9649 -88.4765 0.000171672 -3.35909 
447 2 4.82351 16.2952 -86.0914 4.90006e-05 -3.35985 
448 2 1.37802 2.262 -82.5089 2.04109e-05 -3.36006 
449 2 13.5256 13.9202 -76.5352 3.75783e-05 -3.35992 
450 2 3.90225 6.96019 -89.2758 0.000145468 -3.35947 
451 2 7.10468 4.57969 -78.1279 4.85005e-05 -3.36004 
452 2 12.1551 20.9858 -91.6625 0.00217926 -3.35445 
453 2 3.68304 11.6618 -95.2318 7.81381 -3.21129 
454 2 15.1269 9.24711 -76.1352 1.38083e-05 -3.36022 
455 2 15.3525 4.58962 -80.519 1.35991e-05 -3.36014 
456 2 3.44475 16.2706 -80.5203 3.06042e-05 -3.36015 
457 2 6.1968 9.30545 -91.6618 0.00139064 -3.35592 
458 2 12.3766 2.27713 -85.6972 1.56299e-05 -3.35955 
459 2 17.1872 2.26838 -84.5016 4.66094e-05 -3.35989 
460 2 10.0861 20.9597 -83.3078 4.73779e-05 -3.35995 
461 2 16.2742 13.9232 -77.3328 2.92006e-05 -3.35983 
462 2 17.6467 20.9531 -82.9083 3.98364e-05 -3.35998 
463 2 6.87821 2.27239 -84.1028 3.84875e-05 -3.36019 
464 2 6.8687 2.29965 -94.4121 0.0258665 -3.31242 
465 2 2.52696 20.9575 -83.7028 3.7826e-05 -3.36006 
466 2 6.65668 20.985 -90.0688 0.00025848 -3.36208 
467 2 14.2113 6.95864 -89.6771 0.000312493 -3.36235 
468 2 1.38573 2.29119 -92.8574 0.00612922 -3.35128 
469 2 2.98562 18.6144 -82.1116 1.53071e-05 -3.35999 
470 2 13.5217 6.91088 -76.534 1.45053e-05 -3.35978 
471 2 9.39701 6.9268 -80.5186 1.1652e-05 -3.36004 
472 2 0.69666 9.29468 -90.0698 0.000378596 -3.36233 
473 2 14.4375 9.27434 -83.7054 1.24565e-05 -3.35988 
474 2 13.0606 2.24299 -78.1314 6.61997e-05 -3.35988 
475 2 14.4321 9.30123 -94.0263 0.00861651 -3.33315 
476 2 15.8151 2.28529 -89.281 0.000320233 -3.36166 
477 2 7.35027 13.9766 -92.8631 0.00638726 -3.35118 
478 2 7.80607 18.6494 -91.2565 0.00179242 -3.35999 
479 2 16.9644 13.9714 -90.4627 0.000331745 -3.36287 
480 2 14.665 4.57899 -77.7298 3.10221e-05 -3.35995 
481 2 7.11041 4.62513 -88.4826 0.000112955 -3.35933 
482 2 8.25338 9.25766 -79.3228 2.15018e-05 -3.35983 
483 2 4.35496 4.57838 -77.3293 5.04474e-05 -3.35991 
484 2 16.9576 20.9426 -80.1225 3.08519e-05 -3.35992 
485 2 16.2757 13.963 -87.6824 4.53125e-05 -3.36023 
486 2 8.26363 16.3097 -89.675 0.000513879 -3.3615 
487 2 16.7539 18.6947 -96.4332 14.8816 -3.02682 
488 2 6.87765 9.27905 -84.1058 7.84789e-05 -3.35993 
489 2 0.692443 9.25932 -79.7221 1.02046e-05 -3.35993 
490 2 7.34588 20.9897 -92.8513 0.00635519 -3.35817 
491 2 14.667 18.597 -77.7337 2.75282e-05 -3.36011 
492 2 13.9857 18.5469 -64.5878 4.0773e-05 -3.35993 
493 2 14.901 6.89638 -71.7517 6.43397e-05 -3.35992 
494 2 0.00991164 16.2197 -66.5802 2.56895e-05 -3.36031 
495 2 9.40269 13.8982 -70.1636 1.15632e-05 -3.35991 
496 2 2.06726 16.253 -74.9445 3.01402e-05 -3.35988 
497 2 0.929617 18.5391 -63.393 2.54928e-05 -3.35955 
498 2 8.04049 13.8183 -54.2388 2.15823e-05 -3.35996 
499 2 8.49208 18.4807 -52.6467 6.15402e-05 -3.35993 
500 2 4.59091 13.9029 -71.3594 1.90474e-05 -3.35997 
501 2 14.9126 13.856 -61.4055 4.87299e-05 -3.35996 
502 2 5.73827 11.5691 -72.5536 4.72074e-05 -3.36028 
503 2 2.53478 20.8157 -52.6464 8.01703e-05 -3.36004 
504 2 4.13948 16.1995 -62.5982 1.61325e-05 -3.35967 
505 2 3.45841 16.1837 -59.8105 7.72577e-05 -3.36008 
506 2 16.2745 20.895 -66.9759 5.70612e-05 -3.36041 
507 2 5.28957 13.8126 -53.4414 5.47462e-05 -3.36028 
508 2 7.35274 6.85191 -61.8007 2.56358e-05 -3.36001 
509 2 0.249817 4.50547 -60.6032 2.52128e-05 -3.35988 
510 2 16.4997 2.22232 -71.3559 2.34233e-05 -3.35964 
511 2 0.920044 4.56694 -73.7444 3.76966e-05 -3.36002 
512 2 15.1317 2.19674 -65.7802 1.40543e-05 -3.35998 
513 2 9.6347 2.18968 -64.1881 2.12333e-05 -3.35994 
514 2 12.3831 2.19263 -64.9847 1.32012e-05 -3.35987 
515 2 7.34757 13.8011 -51.4529 8.06301e-05 -3.35986 
516 2 11.7026 9.1341 -51.8507 7.67656e-05 -3.35983 
517 2 5.05929 18.5191 -59.4115 3.20818e-05 -3.36008 
518 2 4.58614 20.911 -71.3583 3.9799e-05 -3.35987 
519 2 2.52278 20.9194 -73.3486 4.75755e-05 -3.35986 
520 2 14.4464 2.12812 -52.6472 6.86651e-05 -3.36007 
521 2 5.28444 13.8707 -63.7935 3.79248e-05 -3.35962 
522 2 14.6757 11.5504 -67.3738 1.70083e-05 -3.36009 
523 2 11.0185 16.1847 -59.4135 4.62228e-05 -3.36009 
524 2 14.214 13.8955 -68.9679 6.35232e-05 -3.35988 
525 2 14.4353 2.22909 -73.3482 7.38914e-05 -3.36008 
526 2 13.2978 18.4761 -51.4551 3.82716e-05 -3.35973 
527 2 13.9786 4.57011 -74.9413 1.95329e-05 -3.35996 
528 2 2.53972 6.80059 -52.6473 4.75191e-05 -3.35988 
529 2 13.7662 16.1877 -60.2105 2.50804e-05 -3.36003 
530 2 10.3325 16.1684 -56.6277 7.62608e-05 -3.35974 
531 2 0.713232 9.17041 -59.0151 3.74911e-05 -3.36 
532 2 16.5034 16.1352 -50.6596 2.93312e-05 -3.35996 
533 2 8.48649 11.5711 -73.3487 1.03476e-05 -3.35978 
534 2 15.1371 9.20461 -65.78 3.24329e-05 -3.36023 
535 2 0.473078 13.8744 -64.9867 3.26394e-05 -3.3601 
536 2 2.76544 9.21293 -67.3753 2.8967e-05 -3.36012 
537 2 15.3715 4.50287 -59.8079 3.37303e-05 -3.36002 
538 2 8.94605 9.2293 -71.7545 2.33262e-05 -3.35996 
539 2 7.81042 4.507 -60.2077 1.46285e-05 -3.35978 
540 2 5.97295 6.87181 -66.5787 3.22332e-05 -3.35979 
541 2 6.8933 9.19573 -63.3947 2.60553e-05 -3.35998 
542 2 3.68707 11.4788 -53.8399 3.01752e-05 -3.35989 
543 2 11.6957 2.12421 -51.8524 7.81508e-05 -3.35985 
544 2 9.18006 11.544 -65.7832 3.42102e-05 -3.36017 
545 2 11.6904 16.2436 -72.5531 1.3359e-05 -3.35994 
546 2 5.98131 6.82113 -56.226 6.06239e-05 -3.35994 
547 2 9.18415 18.4978 -55.4321 3.88426e-05 -3.36017 
548 2 5.52485 9.16604 -57.8207 5.07672e-05 -3.36013 
549 2 3.4618 9.17565 -59.8106 2.69676e-05 -3.36009 
550 2 4.59203 6.89257 -71.3557 2.38659e-05 -3.35975 
551 2 13.0733 9.21493 -67.7711 2.5168e-05 -3.3601 
552 2 8.73044 6.82728 -57.0237 2.97093e-05 -3.35976 
553 2 7.10882 18.5616 -67.7739 6.03251e-05 -3.36025 
554 2 5.05106 4.54866 -69.7633 3.1732e-05 -3.3598 
555 2 10.3292 2.15147 -56.6261 5.48709e-05 -3.36004 
556 2 6.43133 11.5403 -64.9878 2.79357e-05 -3.36012 
557 2 16.7399 11.5393 -65.3837 2.42712e-05 -3.36024 
558 2 5.74259 18.5344 -62.1984 1.40327e-05 -3.35983 
559 2 9.85791 18.5646 -68.5711 3.21605e-05 -3.35994 
560 2 2.75965 2.20381 -67.373 2.0792e-05 -3.36009 
561 2 14.8987 20.8101 -51.0576 5.45462e-05 -3.36005 
562 2 1.38449 9.23373 -72.1503 8.39717e-05 -3.35999 
563 2 0.477195 6.86347 -64.9836 5.10575e-05 -3.36008 
564 2 8.2613 9.21968 -68.9678 2.42176e-05 -3.35979 
565 2 13.5405 13.8277 -55.8319 3.09631e-05 -3.35993 
566 2 6.65681 6.88385 -69.3656 1.72208e-05 -3.35981 
567 2 12.6262 11.5089 -59.0157 5.06228e-05 -3.36004 
568 2 14.4481 16.1465 -52.6484 2.62359e-05 -3.35995 
569 2 2.0799 2.13403 -54.2373 4.89513e-05 -3.36026 
570 2 11.4752 20.8484 -57.8202 3.85241e-05 -3.35999 
571 2 12.8441 20.8221 -53.0463 7.28851e-05 -3.35987 
572 2 16.0576 11.5254 -62.5984 1.3502e-05 -3.35974 
573 2 2.53809 13.8083 -52.6466 4.23068e-05 -3.36012 