ITEM: TIMESTEP
0
ITEM: NUMBER OF ATOMS
3300
ITEM: BOX BOUNDS xy xz yz pp pp ff
-3.4453885863707101e+00 1.4327009188997499e+01 -3.4372917164008752e+00
-1.0222711012621859e-02 1.8911186972128974e+01 0.0000000000000000e+00
-1.2150000000000000e+02 1.2150000000000000e+02 0.0000000000000000e+00
ITEM: ATOMS id type x y z c_csym c_eng 
1 2 11.5196 8.50043 0.106097 5.94577 -3.3491 
2 2 2.2388 1.72032 0.0960363 5.15967 -3.37077 
3 2 -0.00558444 0.0419528 0.0985397 4.98267 -3.37076 
4 2 8.61831 17.2462 0.0624116 5.47845 -3.37665 
5 2 -0.527185 10.2246 0.0905391 6.05429 -3.35406 
6 2 9.20404 6.80629 0.108568 5.66398 -3.35528 
7 2 6.87658 5.09194 0.0972153 5.42207 -3.35261 
8 2 4.52007 3.42714 0.0534281 5.50611 -3.3764 
9 2 6.35343 15.4653 0.106066 5.4195 -3.35382 
10 2 4.06217 13.6947 0.105159 5.78549 -3.35425 
11 2 1.77545 11.9428 0.0900191 5.96893 -3.35923 
12 2 11.5485 6.0793 -1.23543 2.81102 -3.26676 
13 2 -1.10021 18.1766 -1.2516 3.11032 -3.25264 
14 2 10.9365 16.4624 -1.2493 3.11941 -3.26789 
15 2 8.63887 14.7014 -1.20544 2.65923 -3.27737 
16 2 -0.505809 7.79384 -1.24674 3.0733 -3.26678 
17 2 9.25326 4.38607 -1.23105 2.91444 -3.275 
18 2 6.96079 2.67813 -1.22374 2.79222 -3.26684 
19 2 4.64307 0.971061 -1.23598 2.97278 -3.27594 
20 2 6.37273 12.9954 -1.2099 2.94347 -3.24055 
21 2 4.10652 11.251 -1.21331 2.94471 -3.26671 
22 2 1.78357 9.50606 -1.24354 3.15154 -3.25201 
23 2 11.8867 3.28963 -1.85397 0.470074 -3.28788 
24 2 -0.76183 15.3557 -1.79054 3.82359 -3.29477 
25 2 11.2577 13.628 -1.79281 4.48285 -3.29294 
26 2 8.95536 11.8927 -1.76865 3.7406 -3.27892 
27 2 -0.195219 4.97601 -1.85565 0.462748 -3.28792 
28 2 9.67433 1.58882 -1.80173 0.667126 -3.32113 
29 2 3.92575 18.8141 -1.7759 1.45688 -3.30714 
30 2 1.57651 17.0903 -1.77968 2.65437 -3.29754 
31 2 6.6473 10.1367 -1.75646 2.60867 -3.28422 
32 2 4.33961 8.36475 -1.77735 1.47143 -3.30692 
33 2 2.06044 6.62169 -1.80565 0.648957 -3.31898 
34 2 12.2324 0.319094 -2.29321 1.37423 -3.3275 
35 2 -0.418378 12.467 -1.97202 5.48885 -3.39342 
36 2 11.6238 10.7579 -1.9504 5.56942 -3.39622 
37 2 9.35785 9.0463 -1.96959 5.42856 -3.39167 
38 2 0.215867 2.08485 -2.10965 2.16473 -3.38771 
39 2 6.4631 17.5536 -2.08575 2.32659 -3.3814 
40 2 4.15504 15.8613 -2.01021 5.20421 -3.39322 
41 2 1.86453 14.171 -1.98092 5.42763 -3.39514 
42 2 7.10264 7.33588 -1.99325 5.30374 -3.38888 
43 2 4.83108 5.58287 -2.08706 2.30855 -3.38068 
44 2 2.55666 3.81751 -2.29644 1.33179 -3.32657 
45 2 8.99644 16.6109 -3.10653 0.755149 -3.30098 
46 2 -0.209193 9.80059 -3.05267 1.16364 -3.31399 
47 2 11.836 8.08713 -3.05327 1.15201 -3.31494 
48 2 9.55714 6.36998 -3.05504 1.06552 -3.31082 
49 2 -3.02183 18.3561 -3.12842 0.899155 -3.29126 
50 2 6.68601 14.9289 -3.07197 0.991675 -3.30375 
51 2 4.38882 13.2212 -3.053 1.07639 -3.31008 
52 2 2.09728 11.5096 -3.0443 1.08932 -3.31675 
53 2 7.28617 4.63797 -3.06945 0.979337 -3.31041 
54 2 5.02601 2.88328 -3.10049 0.729008 -3.299 
55 2 2.71185 1.15113 -3.12172 0.870578 -3.29451 
56 2 9.33466 13.7849 -3.74446 0.0781338 -3.31809 
57 2 0.1541 6.92897 -3.76915 0.0700468 -3.32024 
58 2 12.1969 5.22526 -3.7771 0.0648418 -3.32235 
59 2 9.92135 3.50094 -3.76544 0.0592796 -3.32195 
60 2 -2.68594 15.5083 -3.76095 0.093899 -3.32243 
61 2 7.03542 12.0635 -3.72979 0.0790656 -3.32424 
62 2 4.74021 10.3401 -3.72897 0.081958 -3.32648 
63 2 2.44435 8.62837 -3.74797 0.0780635 -3.32743 
64 2 7.65563 1.77336 -3.74615 0.060886 -3.32799 
65 2 5.37015 0.0387331 -3.74604 0.0818172 -3.32938 
66 2 -0.37052 17.2283 -3.75796 0.0978714 -3.31967 
67 2 9.69412 10.9421 -4.23547 0.479181 -3.35441 
68 2 0.504243 4.07125 -4.32526 0.238012 -3.36124 
69 2 12.5642 2.36331 -4.32376 0.243853 -3.36134 
70 2 10.2486 0.634313 -4.3044 0.219223 -3.35534 
71 2 11.9895 12.6561 -4.2421 0.500555 -3.35272 
72 2 7.40136 9.22838 -4.2344 0.430076 -3.35601 
73 2 5.11161 7.5142 -4.25583 0.359181 -3.35781 
74 2 2.81156 5.81146 -4.30616 0.213109 -3.35595 
75 2 4.5326 17.8217 -4.25579 0.358197 -3.35715 
76 2 2.24623 16.0955 -4.24586 0.434502 -3.35335 
77 2 -0.0480572 14.3747 -4.24653 0.46954 -3.35147 
78 2 9.926 8.25285 -4.9948 0.205745 -3.3155 
79 2 0.763476 1.3576 -5.03189 0.144893 -3.31687 
80 2 9.36282 18.5451 -5.04435 0.0770459 -3.31792 
81 2 7.05648 16.8337 -5.01032 0.144166 -3.31903 
82 2 12.2181 9.96836 -4.99403 0.222119 -3.315 
83 2 7.63915 6.53511 -4.99651 0.190955 -3.31755 
84 2 5.35363 4.81026 -5.00618 0.135291 -3.32172 
85 2 3.06909 3.07542 -5.04079 0.0700034 -3.31886 
86 2 4.76325 15.1144 -4.99819 0.187012 -3.31769 
87 2 2.47269 13.3959 -4.99087 0.196229 -3.31736 
88 2 0.180274 11.6819 -4.98996 0.200328 -3.31784 
89 2 10.2308 5.45382 -5.68806 0.0208145 -3.3456 
90 2 -2.36205 17.4701 -5.69849 0.0157562 -3.35292 
91 2 9.66949 15.7476 -5.69221 0.0146465 -3.35243 
92 2 7.36921 14.032 -5.67592 0.0182978 -3.35029 
93 2 12.5255 7.17521 -5.6884 0.0222167 -3.34505 
94 2 7.94611 3.72688 -5.68391 0.018189 -3.34721 
95 2 5.66518 1.99661 -5.68847 0.0132058 -3.35388 
96 2 3.37377 0.27066 -5.69429 0.0142772 -3.35428 
97 2 5.07626 12.3138 -5.66798 0.0200916 -3.35059 
98 2 2.7833 10.6002 -5.66965 0.0208659 -3.34964 
99 2 0.48744 8.88792 -5.68057 0.0232932 -3.34554 
100 2 10.5545 2.63062 -6.31711 0.0283452 -3.3606 
101 2 -2.04924 14.6549 -6.29903 0.0479738 -3.3608 
102 2 9.98853 12.9382 -6.29169 0.0477728 -3.36044 
103 2 7.69422 11.2231 -6.28544 0.0451221 -3.35963 
104 2 12.8445 4.35848 -6.32731 0.0246161 -3.35045 
105 2 8.26042 0.902475 -6.30458 0.033442 -3.35553 
106 2 2.5374 18.0974 -6.29761 0.0411279 -3.36018 
107 2 0.247096 16.3742 -6.30092 0.0447289 -3.3593 
108 2 5.40212 9.50823 -6.28779 0.0399013 -3.3579 
109 2 3.10876 7.79526 -6.30281 0.0322262 -3.35297 
110 2 0.809079 6.0741 -6.31793 0.027796 -3.35919 
111 2 7.39608 18.7833 -6.98135 0.00725795 -3.34073 
112 2 -1.77736 11.9062 -6.96647 0.0158207 -3.33526 
113 2 10.2617 10.1894 -6.96603 0.0165968 -3.33444 
114 2 7.96851 8.47179 -6.96501 0.0159587 -3.33536 
115 2 13.1308 1.58461 -6.98878 0.00620896 -3.33885 
116 2 5.10234 17.063 -6.96981 0.0131225 -3.33758 
117 2 2.81101 15.3416 -6.96707 0.0150458 -3.33688 
118 2 0.518115 13.6222 -6.96644 0.0147874 -3.33621 
119 2 5.67807 6.75159 -6.96811 0.0123672 -3.33683 
120 2 3.38816 5.02998 -6.97922 0.00642931 -3.34145 
121 2 1.09273 3.30706 -6.98798 0.0057547 -3.33891 
122 2 7.69017 16.0002 -7.64142 0.00427897 -3.35934 
123 2 -1.48586 9.13214 -7.63429 0.00456343 -3.35761 
124 2 10.5536 7.41289 -7.63671 0.00458483 -3.35721 
125 2 8.26114 5.69111 -7.63664 0.00452978 -3.35781 
126 2 9.9892 17.7185 -7.65439 0.00476601 -3.3558 
127 2 5.39672 14.2817 -7.63253 0.00392589 -3.35941 
128 2 3.10432 12.5639 -7.62898 0.00381266 -3.35937 
129 2 0.810197 10.8478 -7.63036 0.00416219 -3.35859 
130 2 5.97319 3.96728 -7.6409 0.00413848 -3.35865 
131 2 3.68371 2.24119 -7.65204 0.00427359 -3.35578 
132 2 1.38733 0.52096 -7.65139 0.00378602 -3.36008 
133 2 7.99273 13.2117 -8.28487 0.00515993 -3.35926 
134 2 13.1504 6.34188 -8.29745 0.00420437 -3.35813 
135 2 10.8545 4.61973 -8.29749 0.00425119 -3.35797 
136 2 8.56349 2.89601 -8.29276 0.00452176 -3.35909 
137 2 10.2881 14.9292 -8.29116 0.00551524 -3.35865 
138 2 5.69953 11.4942 -8.28222 0.00455646 -3.35952 
139 2 3.4063 9.77753 -8.2847 0.00416025 -3.35895 
140 2 1.11141 8.05986 -8.29116 0.0042518 -3.35977 
141 2 6.27346 1.17181 -8.29194 0.00479174 -3.35738 
142 2 0.543998 18.3706 -8.29331 0.00499543 -3.35813 
143 2 -1.75037 16.6496 -8.29433 0.00536551 -3.35846 
144 2 8.28174 10.4404 -8.9428 0.00138318 -3.35029 
145 2 13.4419 3.56115 -8.95686 0.00116957 -3.35168 
146 2 11.1468 1.8394 -8.95456 0.000989212 -3.3519 
147 2 8.85355 0.117445 -8.94941 0.00120351 -3.35146 
148 2 10.5763 12.1585 -8.94449 0.00138788 -3.35033 
149 2 5.98865 8.72167 -8.94308 0.00130418 -3.35077 
150 2 3.69603 7.00242 -8.94749 0.00112559 -3.35143 
151 2 1.40215 5.28225 -8.95376 0.000995356 -3.35204 
152 2 3.12411 17.3172 -8.94665 0.00128484 -3.35117 
153 2 0.831397 15.596 -8.94709 0.00126766 -3.35046 
154 2 -1.46328 13.8769 -8.9463 0.00130706 -3.35055 
155 2 8.57204 7.66524 -9.61151 0.00187049 -3.35783 
156 2 13.7327 0.781858 -9.62071 0.0014211 -3.35714 
157 2 7.99984 17.9817 -9.61776 0.00150501 -3.35751 
158 2 5.7063 16.2611 -9.61264 0.00150748 -3.35807 
159 2 10.8663 9.38469 -9.61148 0.00191897 -3.35785 
160 2 6.27949 5.94521 -9.61239 0.00166217 -3.35752 
161 2 3.9872 4.22453 -9.61641 0.00148105 -3.35741 
162 2 1.69274 2.503 -9.61999 0.0013898 -3.3571 
163 2 3.41404 14.5406 -9.61041 0.00155204 -3.35837 
164 2 1.12081 12.8214 -9.60993 0.00163529 -3.3583 
165 2 -1.17376 11.1032 -9.6106 0.00180553 -3.3581 
166 2 8.86367 4.88582 -10.2732 0.00151067 -3.35812 
167 2 10.588 16.9219 -10.2769 0.00145511 -3.35734 
168 2 8.29292 15.2021 -10.2727 0.00134454 -3.35814 
169 2 5.9993 13.4829 -10.2692 0.00128397 -3.35837 
170 2 11.1574 6.60692 -10.2738 0.00157357 -3.35843 
171 2 6.57171 3.1643 -10.2735 0.0013721 -3.35809 
172 2 4.27935 1.44249 -10.2762 0.00138644 -3.35714 
173 2 -1.45225 18.6431 -10.2767 0.00134525 -3.35782 
174 2 3.70603 11.7639 -10.2682 0.00128327 -3.35854 
175 2 1.41211 10.0455 -10.2695 0.00138405 -3.35875 
176 2 -0.882663 8.32687 -10.2722 0.00153893 -3.35843 
177 2 9.15402 2.10819 -10.9336 0.000816479 -3.35638 
178 2 10.8774 14.1468 -10.9316 0.000791058 -3.35631 
179 2 8.58291 12.4277 -10.9297 0.000752057 -3.35627 
180 2 6.28917 10.7086 -10.9288 0.000740868 -3.35632 
181 2 11.4477 3.82944 -10.9355 0.000922019 -3.35651 
182 2 6.8614 0.386781 -10.9325 0.000796203 -3.35639 
183 2 1.13096 17.5872 -10.9326 0.000757009 -3.35643 
184 2 -1.163 15.8667 -10.9327 0.00077263 -3.35636 
185 2 3.99574 8.98957 -10.9297 0.000787003 -3.35645 
186 2 1.70185 7.27028 -10.9325 0.000841214 -3.35643 
187 2 -0.592775 5.55023 -10.9352 0.00094103 -3.35654 
188 2 6.00512 18.2545 -11.5965 0.000645232 -3.35801 
189 2 11.1654 11.3746 -11.5942 0.000643577 -3.3583 
190 2 8.87107 9.65522 -11.594 0.000663714 -3.35828 
191 2 6.57741 7.93563 -11.5941 0.000670054 -3.35816 
192 2 11.7363 1.05394 -11.5986 0.000709524 -3.35794 
193 2 3.71201 16.5338 -11.595 0.000587654 -3.35825 
194 2 1.41874 14.8135 -11.5946 0.000570327 -3.35823 
195 2 -0.875284 13.0939 -11.5944 0.000606744 -3.35831 
196 2 4.28414 6.21583 -11.5955 0.000689456 -3.35796 
197 2 1.99033 4.4955 -11.5979 0.000723303 -3.35793 
198 2 -0.304219 2.77485 -11.5993 0.000732886 -3.35765 
199 2 6.29434 15.4794 -12.2589 0.000553377 -3.35841 
200 2 11.4539 8.60092 -12.2591 0.000620079 -3.35832 
201 2 9.15974 6.88089 -12.2593 0.000621502 -3.35832 
202 2 6.8663 5.16064 -12.2594 0.000608552 -3.3583 
203 2 8.58812 17.1997 -12.261 0.000608848 -3.35841 
204 2 4.001 13.7594 -12.2578 0.000527698 -3.35838 
205 2 1.70738 12.0398 -12.2577 0.000539741 -3.35839 
206 2 -0.586744 10.3205 -12.2583 0.000587083 -3.35834 
207 2 4.57306 3.44022 -12.2606 0.000613533 -3.35839 
208 2 2.27916 1.71951 -12.2618 0.000632868 -3.35837 
209 2 14.3199 -0.00111363 -12.2621 0.000638002 -3.35839 
210 2 6.58286 12.706 -12.9208 0.000438496 -3.3585 
211 2 11.742 5.82707 -12.9233 0.000528292 -3.35863 
212 2 9.44796 4.10655 -12.923 0.000510852 -3.35855 
213 2 7.15457 2.38591 -12.9227 0.000488111 -3.35838 
214 2 8.87672 14.4258 -12.9219 0.000463655 -3.35839 
215 2 4.2892 10.9864 -12.9205 0.000440888 -3.3586 
216 2 1.9954 9.26691 -12.9212 0.000471782 -3.35865 
217 2 -0.298765 7.54721 -12.9225 0.000513246 -3.35869 
218 2 4.86123 0.665234 -12.9231 0.000493886 -3.35822 
219 2 -0.869934 17.8661 -12.9233 0.000491563 -3.35834 
220 2 11.171 16.1458 -12.9231 0.000499717 -3.35822 
221 2 6.87015 9.93403 -13.5856 0.000358224 -3.35881 
222 2 12.0294 3.05374 -13.5883 0.000428881 -3.35871 
223 2 9.73541 1.33319 -13.5876 0.000400307 -3.35876 
224 2 4.00458 18.5341 -13.587 0.000371382 -3.35876 
225 2 9.16405 11.6538 -13.5859 0.000358041 -3.35882 
226 2 4.57645 8.21427 -13.586 0.00037408 -3.35878 
227 2 2.28266 6.49437 -13.587 0.000405782 -3.35878 
228 2 -0.011467 4.77419 -13.5881 0.000431198 -3.35872 
229 2 1.71104 16.8136 -13.5868 0.000359224 -3.3588 
230 2 -0.582799 15.0934 -13.5866 0.000362551 -3.35881 
231 2 11.4582 13.3735 -13.5863 0.000363704 -3.35881 
232 2 7.15732 7.1617 -14.2523 0.000327511 -3.35923 
233 2 12.3167 0.280557 -14.2539 0.000360258 -3.3592 
234 2 6.58546 17.4816 -14.2531 0.000331785 -3.3592 
235 2 4.29183 15.7613 -14.2523 0.000307881 -3.35923 
236 2 9.45118 8.88169 -14.2522 0.00032485 -3.35926 
237 2 4.86367 5.44163 -14.2527 0.000340036 -3.35919 
238 2 2.56987 3.72138 -14.2536 0.000360093 -3.35919 
239 2 0.275776 2.001 -14.2541 0.000370765 -3.35915 
240 2 1.99817 14.0412 -14.2521 0.000302497 -3.35923 
241 2 -0.295732 12.3214 -14.252 0.000310048 -3.35925 
242 2 11.7453 10.6016 -14.2522 0.000319973 -3.35926 
243 2 7.4445 4.38897 -14.9189 0.000297069 -3.35927 
244 2 9.16673 16.4291 -14.9191 0.000302006 -3.35926 
245 2 6.87283 14.709 -14.9184 0.0002787 -3.35926 
246 2 4.57908 12.989 -14.918 0.000267775 -3.35926 
247 2 9.73829 6.10921 -14.9189 0.000299516 -3.35929 
248 2 5.15085 2.66867 -14.9191 0.000304574 -3.35926 
249 2 2.85704 0.94831 -14.9195 0.000313223 -3.35926 
250 2 -2.87428 18.1494 -14.9195 0.00031482 -3.35927 
251 2 2.28529 11.2691 -14.918 0.000271556 -3.35928 
252 2 -0.00866376 9.54931 -14.9183 0.00028531 -3.3593 
253 2 12.0323 7.82936 -14.9188 0.000297899 -3.3593 
254 2 7.73132 1.61662 -15.5857 0.000254647 -3.35945 
255 2 9.45361 13.6572 -15.5852 0.000242091 -3.35946 
256 2 7.15968 11.9373 -15.5849 0.000233096 -3.35948 
257 2 4.86585 10.2173 -15.5848 0.000233372 -3.3595 
258 2 10.0251 3.33694 -15.5859 0.000262309 -3.35949 
259 2 2.00032 18.8177 -15.5856 0.000254 -3.35942 
260 2 -0.293508 17.0974 -15.5856 0.000253435 -3.35945 
261 2 -2.58749 15.3773 -15.5855 0.000253213 -3.35943 
262 2 2.57202 8.49742 -15.5851 0.000244073 -3.35951 
263 2 0.278058 6.77741 -15.5856 0.000259294 -3.35952 
264 2 12.3191 5.05724 -15.586 0.000267585 -3.35951 
265 2 4.58065 17.7661 -16.2533 0.00021657 -3.35969 
266 2 9.74019 10.8857 -16.2529 0.000209626 -3.35971 
267 2 7.44626 9.16574 -16.2529 0.000209235 -3.35971 
268 2 5.15243 7.44572 -16.253 0.000213728 -3.3597 
269 2 10.3118 0.564903 -16.2536 0.000226985 -3.3597 
270 2 2.28689 16.0459 -16.2531 0.000211668 -3.35969 
271 2 -0.00696463 14.3257 -16.253 0.000211528 -3.3597 
272 2 12.0342 12.6057 -16.253 0.000211325 -3.3597 
273 2 2.8586 5.72564 -16.2534 0.000224794 -3.3597 
274 2 0.564644 4.00545 -16.2538 0.000235253 -3.3597 
275 2 12.6057 2.28519 -16.2539 0.000236277 -3.3597 
276 2 4.8673 14.9943 -16.9215 0.000186894 -3.35982 
277 2 10.0267 8.11411 -16.9216 0.000192254 -3.35985 
278 2 7.73284 6.394 -16.9216 0.000192699 -3.35983 
279 2 5.43903 4.67385 -16.9217 0.000196363 -3.35983 
280 2 7.16114 16.7144 -16.9217 0.0001951 -3.35982 
281 2 2.57348 13.2742 -16.9213 0.000184691 -3.35982 
282 2 0.279591 11.5542 -16.9214 0.000186611 -3.35983 
283 2 12.3207 9.83417 -16.9215 0.00019028 -3.35984 
284 2 3.14519 2.95366 -16.9219 0.00020342 -3.35983 
285 2 0.851251 1.23342 -16.9221 0.000207613 -3.35983 
286 2 9.45507 18.4346 -16.922 0.000204537 -3.35983 
287 2 5.15383 12.2227 -17.5903 0.000160663 -3.35989 
288 2 10.3132 5.34243 -17.5907 0.000172742 -3.35991 
289 2 8.01935 3.62223 -17.5907 0.000171272 -3.3599 
290 2 5.72554 1.90203 -17.5907 0.00017223 -3.35989 
291 2 7.4477 13.9428 -17.5904 0.000164043 -3.35989 
292 2 2.85997 10.5027 -17.5903 0.000161832 -3.3599 
293 2 0.56606 8.78267 -17.5905 0.000166655 -3.35991 
294 2 12.6072 7.06258 -17.5907 0.000171705 -3.35992 
295 2 3.43169 0.181815 -17.5908 0.000174321 -3.35989 
296 2 -2.29953 17.383 -17.5908 0.000174634 -3.35989 
297 2 9.74162 15.6629 -17.5906 0.000170705 -3.35989 
298 2 5.44022 9.45133 -18.26 0.000139615 -3.36001 
299 2 10.5996 2.5708 -18.2604 0.000149877 -3.36002 
300 2 8.30577 0.850605 -18.2603 0.000146701 -3.36001 
301 2 2.57464 18.0518 -18.2602 0.000145227 -3.36 
302 2 7.7341 11.1714 -18.26 0.000139562 -3.36001 
303 2 3.14635 7.73126 -18.2601 0.000142868 -3.36002 
304 2 0.852439 6.01116 -18.2603 0.000148091 -3.36002 
305 2 12.8936 4.291 -18.2604 0.000151283 -3.36002 
306 2 0.280772 16.3317 -18.2602 0.000144692 -3.36 
307 2 -2.01314 14.6115 -18.2602 0.000144173 -3.36 
308 2 10.028 12.8915 -18.2601 0.000141724 -3.36001 
309 2 5.72658 6.67987 -18.9304 0.000123208 -3.36009 
310 2 7.44875 18.7206 -18.9306 0.000127473 -3.3601 
311 2 5.15487 17.0005 -18.9305 0.000124086 -3.36009 
312 2 2.86101 15.2803 -18.9304 0.000122184 -3.36009 
313 2 8.02046 8.39998 -18.9304 0.000122126 -3.3601 
314 2 3.43271 4.95974 -18.9305 0.000126271 -3.3601 
315 2 1.13881 3.23958 -18.9307 0.000129575 -3.3601 
316 2 13.18 1.5194 -18.9307 0.000130166 -3.3601 
317 2 0.567129 13.5602 -18.9304 0.000121835 -3.36009 
318 2 -1.72679 11.8402 -18.9304 0.000122022 -3.36009 
319 2 10.3144 10.1201 -18.9304 0.000122088 -3.3601 
320 2 6.01294 3.90836 -19.6013 0.00010648 -3.36013 
321 2 7.73514 15.9491 -19.6012 0.000105832 -3.36013 
322 2 5.44125 14.229 -19.6011 0.000103474 -3.36012 
323 2 3.14737 12.5089 -19.6011 0.000102686 -3.36013 
324 2 8.30682 5.62851 -19.6012 0.0001059 -3.36013 
325 2 3.71907 2.1882 -19.6013 0.000108065 -3.36013 
326 2 1.42517 0.468029 -19.6014 0.000109185 -3.36013 
327 2 10.0291 17.6693 -19.6013 0.000108391 -3.36013 
328 2 0.853472 10.7888 -19.6011 0.000103358 -3.36013 
329 2 -1.44045 9.06875 -19.6012 0.00010485 -3.36014 
330 2 10.6007 7.34864 -19.6012 0.000105812 -3.36014 
331 2 6.29927 1.13689 -20.2725 8.88031e-05 -3.36016 
332 2 8.02147 13.1778 -20.2724 8.65474e-05 -3.36016 
333 2 5.72757 11.4577 -20.2724 8.57395e-05 -3.36016 
334 2 3.43368 9.73757 -20.2724 8.60978e-05 -3.36016 
335 2 8.59314 2.85704 -20.2725 8.91253e-05 -3.36017 
336 2 0.568093 18.3381 -20.2725 8.89842e-05 -3.36016 
337 2 -1.72581 16.618 -20.2725 8.89264e-05 -3.36016 
338 2 10.3154 14.8979 -20.2725 8.79918e-05 -3.36016 
339 2 1.13978 8.01747 -20.2725 8.76022e-05 -3.36017 
340 2 13.181 6.29734 -20.2725 8.92912e-05 -3.36017 
341 2 10.887 4.5772 -20.2726 8.97423e-05 -3.36017 
342 2 3.14827 17.2869 -20.9442 7.25459e-05 -3.36019 
343 2 8.30776 10.4064 -20.9441 7.13731e-05 -3.3602 
344 2 6.01386 8.68631 -20.9442 7.1452e-05 -3.3602 
345 2 3.71997 6.96619 -20.9442 7.22761e-05 -3.3602 
346 2 8.87945 0.0856152 -20.9442 7.32645e-05 -3.3602 
347 2 0.854383 15.5667 -20.9442 7.22217e-05 -3.36019 
348 2 -1.43952 13.8466 -20.9442 7.20308e-05 -3.36019 
349 2 10.6017 12.1265 -20.9442 7.16801e-05 -3.36019 
350 2 1.42607 5.24606 -20.9443 7.36352e-05 -3.3602 
351 2 13.4673 3.52592 -20.9443 7.455e-05 -3.3602 
352 2 11.1734 1.80577 -20.9443 7.42292e-05 -3.3602 
353 2 3.43456 14.5155 -21.6163 5.86167e-05 -3.3602 
354 2 8.59405 7.63505 -21.6163 5.90517e-05 -3.36021 
355 2 6.30015 5.91492 -21.6163 5.92689e-05 -3.36021 
356 2 4.00626 4.19479 -21.6164 5.98813e-05 -3.36021 
357 2 5.72846 16.2356 -21.6163 5.9212e-05 -3.36021 
358 2 1.14067 12.7954 -21.6163 5.84858e-05 -3.3602 
359 2 -1.15323 11.0753 -21.6163 5.86559e-05 -3.36021 
360 2 10.888 9.35517 -21.6163 5.892e-05 -3.36021 
361 2 1.71237 2.47465 -21.6164 6.06098e-05 -3.36021 
362 2 13.7536 0.7545 -21.6164 6.07684e-05 -3.36021 
363 2 8.02236 17.9558 -21.6164 6.01251e-05 -3.36021 
364 2 3.72085 11.7442 -22.2888 4.70417e-05 -3.36021 
365 2 8.88033 4.86367 -22.2889 4.81744e-05 -3.36021 
366 2 6.58644 3.14353 -22.2889 4.81611e-05 -3.36021 
367 2 4.29255 1.42339 -22.2889 4.83365e-05 -3.36021 
368 2 6.01474 13.4643 -22.2888 4.7231e-05 -3.36021 
369 2 1.42695 10.024 -22.2888 4.72662e-05 -3.36021 
370 2 -0.86696 8.30393 -22.2888 4.77602e-05 -3.36021 
371 2 11.1742 6.58381 -22.2889 4.81301e-05 -3.36021 
372 2 -1.43865 18.6247 -22.2889 4.84978e-05 -3.36021 
373 2 10.6026 16.9045 -22.2889 4.83004e-05 -3.36021 
374 2 8.30864 15.1844 -22.2888 4.77537e-05 -3.36021 
375 2 4.00712 8.97283 -22.9617 3.76483e-05 -3.36021 
376 2 9.16661 2.0923 -22.9617 3.84318e-05 -3.36021 
377 2 6.87271 0.372162 -22.9617 3.82479e-05 -3.36021 
378 2 1.14152 17.5734 -22.9617 3.81677e-05 -3.36021 
379 2 6.30101 10.6929 -22.9617 3.75452e-05 -3.36021 
380 2 1.71321 7.2527 -22.9617 3.80051e-05 -3.36021 
381 2 -0.580691 5.53258 -22.9617 3.843e-05 -3.36021 
382 2 11.4605 3.81244 -22.9617 3.85811e-05 -3.36021 
383 2 -1.15238 15.8533 -22.9617 3.80923e-05 -3.36021 
384 2 10.8888 14.1332 -22.9617 3.7906e-05 -3.36021 
385 2 8.59492 12.4131 -22.9617 3.76728e-05 -3.36021 
386 2 4.29338 6.20148 -23.6348 2.99366e-05 -3.3602 
387 2 6.01558 18.2424 -23.6348 3.0106e-05 -3.3602 
388 2 3.72168 16.5222 -23.6348 2.98811e-05 -3.3602 
389 2 1.42778 14.8021 -23.6348 2.9769e-05 -3.3602 
390 2 6.58728 7.92161 -23.6348 2.97772e-05 -3.3602 
391 2 1.99948 4.48135 -23.6348 3.01942e-05 -3.3602 
392 2 -0.294424 2.76121 -23.6349 3.03934e-05 -3.3602 
393 2 11.7468 1.04108 -23.6349 3.03384e-05 -3.3602 
394 2 -0.866117 13.082 -23.6348 2.97309e-05 -3.3602 
395 2 11.1751 11.3619 -23.6348 2.97333e-05 -3.3602 
396 2 8.88118 9.64173 -23.6348 2.97408e-05 -3.3602 
397 2 4.57964 3.43013 -24.3082 2.34684e-05 -3.36019 
398 2 6.30185 15.471 -24.3082 2.32452e-05 -3.36019 
399 2 4.00795 13.7509 -24.3082 2.31105e-05 -3.36019 
400 2 1.71404 12.0308 -24.3082 2.30989e-05 -3.36019 
401 2 6.87354 5.15026 -24.3082 2.33936e-05 -3.36019 
402 2 2.28574 1.70999 -24.3082 2.35688e-05 -3.36019 
403 2 14.3269 -0.0101389 -24.3082 2.358e-05 -3.36019 
404 2 8.59575 17.1911 -24.3082 2.34458e-05 -3.36019 
405 2 -0.579858 10.3106 -24.3082 2.3186e-05 -3.36019 
406 2 11.4613 8.59052 -24.3082 2.33051e-05 -3.36019 
407 2 9.16744 6.87039 -24.3082 2.33639e-05 -3.36019 
408 2 4.8659 0.658783 -24.9819 1.80508e-05 -3.36017 
409 2 6.5881 12.6997 -24.9819 1.77913e-05 -3.36017 
410 2 4.2942 10.9796 -24.9819 1.77657e-05 -3.36017 
411 2 2.0003 9.25943 -24.9819 1.78314e-05 -3.36017 
412 2 7.1598 2.37891 -24.9819 1.80564e-05 -3.36017 
413 2 -0.865293 17.8601 -24.9819 1.8041e-05 -3.36017 
414 2 11.1759 16.1399 -24.9819 1.79805e-05 -3.36017 
415 2 8.88201 14.4198 -24.9819 1.788e-05 -3.36017 
416 2 -0.293602 7.53931 -24.9819 1.79616e-05 -3.36018 
417 2 11.7476 5.81918 -24.9819 1.8059e-05 -3.36018 
418 2 9.4537 4.09905 -24.9819 1.80746e-05 -3.36018 
419 2 1.71486 16.8089 -25.6557 1.36733e-05 -3.36016 
420 2 6.87436 9.92835 -25.6557 1.35722e-05 -3.36016 
421 2 4.58046 8.20823 -25.6557 1.35997e-05 -3.36016 
422 2 2.28656 6.4881 -25.6557 1.36722e-05 -3.36016 
423 2 4.00876 18.529 -25.6557 1.37112e-05 -3.36016 
424 2 -0.579041 15.0887 -25.6557 1.36383e-05 -3.36016 
425 2 11.4622 13.3686 -25.6557 1.36055e-05 -3.36016 
426 2 9.16826 11.6485 -25.6557 1.35816e-05 -3.36016 
427 2 -0.00734666 4.76797 -25.6557 1.37575e-05 -3.36016 
428 2 12.0339 3.04784 -25.6557 1.37926e-05 -3.36016 
429 2 9.73995 1.32771 -25.6557 1.37616e-05 -3.36016 
430 2 2.00111 14.0375 -26.3297 1.02506e-05 -3.36014 
431 2 7.16061 7.15702 -26.3297 1.02827e-05 -3.36014 
432 2 4.86671 5.43689 -26.3297 1.03111e-05 -3.36014 
433 2 2.57281 3.71677 -26.3297 1.03539e-05 -3.36014 
434 2 4.29501 15.7577 -26.3297 1.02735e-05 -3.36014 
435 2 -0.29279 12.3174 -26.3297 1.02515e-05 -3.36014 
436 2 11.7484 10.5973 -26.3297 1.02646e-05 -3.36014 
437 2 9.45451 8.87715 -26.3297 1.02721e-05 -3.36014 
438 2 0.278908 1.99664 -26.3297 1.03887e-05 -3.36014 
439 2 12.3201 0.276507 -26.3297 1.03731e-05 -3.36014 
440 2 6.58892 17.4778 -26.3297 1.03234e-05 -3.36014 
441 2 2.28736 11.2662 -27.0039 7.63106e-06 -3.36013 
442 2 7.44686 4.38569 -27.0039 7.69151e-06 -3.36013 
443 2 5.15296 2.66557 -27.0039 7.7035e-06 -3.36013 
444 2 2.85906 0.945436 -27.0039 7.71589e-06 -3.36013 
445 2 4.58126 12.9863 -27.0039 7.62715e-06 -3.36013 
446 2 -0.00654018 9.54608 -27.0039 7.65689e-06 -3.36013 
447 2 12.0347 7.82595 -27.0039 7.68256e-06 -3.36013 
448 2 9.74076 6.10582 -27.0039 7.68737e-06 -3.36013 
449 2 -2.87213 18.1467 -27.0039 7.71243e-06 -3.36013 
450 2 9.16907 16.4266 -27.0039 7.68591e-06 -3.36013 
451 2 6.87517 14.7065 -27.0039 7.65088e-06 -3.36013 
452 2 2.57361 8.49488 -27.6782 5.66436e-06 -3.36011 
453 2 7.73311 1.61437 -27.6782 5.68854e-06 -3.36011 
454 2 2.00192 18.8156 -27.6782 5.68755e-06 -3.36011 
455 2 -0.291985 17.0955 -27.6782 5.68318e-06 -3.36011 
456 2 4.86751 10.215 -27.6782 5.64734e-06 -3.36011 
457 2 0.279711 6.77476 -27.6782 5.68985e-06 -3.36011 
458 2 12.3209 5.05463 -27.6782 5.69902e-06 -3.36011 
459 2 10.027 3.3345 -27.6782 5.69294e-06 -3.36011 
460 2 -2.58589 15.3754 -27.6782 5.67231e-06 -3.36011 
461 2 9.45532 13.6553 -27.6782 5.65747e-06 -3.36011 
462 2 7.16141 11.9351 -27.6782 5.6469e-06 -3.36011 
463 2 2.85986 5.72356 -28.3526 4.1552e-06 -3.3601 
464 2 4.58207 17.7645 -28.3526 4.14455e-06 -3.3601 
465 2 2.28816 16.0443 -28.3526 4.13717e-06 -3.3601 
466 2 -0.0057383 14.3242 -28.3526 4.13421e-06 -3.3601 
467 2 5.15376 7.44369 -28.3526 4.13758e-06 -3.3601 
468 2 0.565961 4.00343 -28.3526 4.16878e-06 -3.3601 
469 2 12.6072 2.2833 -28.3526 4.16734e-06 -3.3601 
470 2 10.3133 0.563172 -28.3526 4.15376e-06 -3.3601 
471 2 12.0355 12.6041 -28.3526 4.13268e-06 -3.3601 
472 2 9.74156 10.8839 -28.3526 4.12782e-06 -3.3601 
473 2 7.44766 9.16381 -28.3526 4.12712e-06 -3.3601 
474 2 3.14611 2.95224 -29.0271 3.00802e-06 -3.36008 
475 2 4.86831 14.9931 -29.0271 2.98385e-06 -3.36008 
476 2 2.57441 13.273 -29.0271 2.97972e-06 -3.36008 
477 2 0.280508 11.5529 -29.0271 2.98379e-06 -3.36008 
478 2 5.44001 4.67236 -29.0271 2.99875e-06 -3.36008 
479 2 0.852208 1.23211 -29.0271 3.00947e-06 -3.36008 
480 2 9.45612 18.4334 -29.0271 3.00339e-06 -3.36008 
481 2 7.16222 16.7133 -29.0271 2.99465e-06 -3.36008 
482 2 12.3217 9.83275 -29.0271 2.98607e-06 -3.36008 
483 2 10.0278 8.11262 -29.0271 2.98389e-06 -3.36008 
484 2 7.73391 6.39249 -29.0271 2.98853e-06 -3.36008 
485 2 3.43235 0.180914 -29.7017 2.16794e-06 -3.36007 
486 2 5.15456 12.2218 -29.7017 2.15301e-06 -3.36007 
487 2 2.86066 10.5017 -29.7017 2.15401e-06 -3.36007 
488 2 0.566756 8.78156 -29.7017 2.15786e-06 -3.36007 
489 2 5.72626 1.90104 -29.7017 2.16584e-06 -3.36007 
490 2 -2.29884 17.3822 -29.7017 2.16761e-06 -3.36007 
491 2 9.74236 15.6621 -29.7017 2.16202e-06 -3.36007 
492 2 7.44846 13.9419 -29.7017 2.15613e-06 -3.36007 
493 2 12.608 7.06143 -29.7017 2.15841e-06 -3.36007 
494 2 10.3141 5.3413 -29.7017 2.15646e-06 -3.36007 
495 2 8.02016 3.62117 -29.7017 2.16115e-06 -3.36007 
496 2 0.281307 16.331 -30.3764 1.53192e-06 -3.36006 
497 2 5.44081 9.45049 -30.3764 1.52664e-06 -3.36006 
498 2 3.1469 7.73036 -30.3764 1.52947e-06 -3.36006 
499 2 0.853004 6.01024 -30.3764 1.53155e-06 -3.36006 
500 2 2.57521 18.0511 -30.3764 1.53169e-06 -3.36006 
501 2 -2.0126 14.6109 -30.3764 1.5309e-06 -3.36006 
502 2 10.0286 12.8907 -30.3764 1.52752e-06 -3.36006 
503 2 7.73471 11.1706 -30.3764 1.52564e-06 -3.36006 
504 2 12.8942 4.29011 -30.3764 1.53237e-06 -3.36006 
505 2 10.6003 2.56998 -30.3764 1.53197e-06 -3.36006 
506 2 8.30641 0.84985 -30.3764 1.53174e-06 -3.36006 
507 2 0.567551 13.5597 -31.0511 1.0669e-06 -3.36005 
508 2 5.72705 6.67917 -31.0511 1.06874e-06 -3.36005 
509 2 3.43315 4.95904 -31.0511 1.0708e-06 -3.36005 
510 2 1.13925 3.23892 -31.0511 1.07127e-06 -3.36005 
511 2 2.86145 15.2798 -31.0511 1.0671e-06 -3.36005 
512 2 -1.72635 11.8396 -31.0511 1.06689e-06 -3.36005 
513 2 10.3149 10.1194 -31.0511 1.06603e-06 -3.36005 
514 2 8.02095 8.3993 -31.0511 1.06744e-06 -3.36005 
515 2 13.1805 1.51879 -31.0511 1.06996e-06 -3.36005 
516 2 7.44926 18.7201 -31.0511 1.06869e-06 -3.36005 
517 2 5.15535 16.9999 -31.0511 1.06833e-06 -3.36005 
518 2 0.853795 10.7884 -31.7259 7.53817e-07 -3.36004 
519 2 6.0133 3.90785 -31.7259 7.55926e-07 -3.36004 
520 2 3.7194 2.18772 -31.7259 7.55492e-07 -3.36004 
521 2 1.42549 0.467596 -31.7259 7.5402e-07 -3.36004 
522 2 3.1477 12.5085 -31.7259 7.53682e-07 -3.36004 
523 2 -1.44011 9.06824 -31.7259 7.54359e-07 -3.36004 
524 2 10.6011 7.34811 -31.7259 7.54887e-07 -3.36004 
525 2 8.3072 5.62798 -31.7259 7.55456e-07 -3.36004 
526 2 10.0294 17.6689 -31.7259 7.53118e-07 -3.36004 
527 2 7.7355 15.9487 -31.7259 7.53573e-07 -3.36004 
528 2 5.4416 14.2286 -31.7259 7.54343e-07 -3.36004 
529 2 1.14004 8.01705 -32.4007 5.21328e-07 -3.36003 
530 2 6.29954 1.13653 -32.4007 5.22981e-07 -3.36003 
531 2 0.568346 18.3378 -32.4007 5.20872e-07 -3.36003 
532 2 -1.72556 16.6177 -32.4007 5.19741e-07 -3.36003 
533 2 3.43394 9.73717 -32.4007 5.20989e-07 -3.36003 
534 2 -1.15386 6.29692 -32.4007 5.22382e-07 -3.36003 
535 2 10.8873 4.57679 -32.4007 5.24353e-07 -3.36003 
536 2 8.59344 2.85666 -32.4007 5.24959e-07 -3.36003 
537 2 10.3156 14.8976 -32.4007 5.1918e-07 -3.36003 
538 2 8.02174 13.1774 -32.4007 5.2025e-07 -3.36003 
539 2 5.72784 11.4573 -32.4007 5.21097e-07 -3.36003 
540 2 1.42628 5.24573 -33.0756 3.52558e-07 -3.36002 
541 2 3.14849 17.2866 -33.0756 3.52757e-07 -3.36002 
542 2 0.854588 15.5665 -33.0756 3.50997e-07 -3.36002 
543 2 -1.43931 13.8464 -33.0756 3.49948e-07 -3.36002 
544 2 3.72019 6.96586 -33.0756 3.52637e-07 -3.36002 
545 2 13.4675 3.5256 -33.0756 3.54126e-07 -3.36002 
546 2 11.1736 1.80547 -33.0756 3.56077e-07 -3.36002 
547 2 8.87968 0.0853432 -33.0756 3.5495e-07 -3.36002 
548 2 10.6019 12.1262 -33.0756 3.4997e-07 -3.36002 
549 2 8.30799 10.4061 -33.0756 3.51459e-07 -3.36002 
550 2 6.01409 8.68598 -33.0756 3.52366e-07 -3.36002 
551 2 1.71253 2.47441 -33.7505 2.41739e-07 -3.36001 
552 2 3.43473 14.5153 -33.7505 2.43292e-07 -3.36001 
553 2 1.14083 12.7952 -33.7505 2.4206e-07 -3.36001 
554 2 -1.15307 11.075 -33.7505 2.41183e-07 -3.36001 
555 2 4.00643 4.19454 -33.7505 2.42053e-07 -3.36001 
556 2 13.7537 0.754281 -33.7505 2.42702e-07 -3.36001 
557 2 8.02254 17.9556 -33.7505 2.43906e-07 -3.36001 
558 2 5.72863 16.2354 -33.7505 2.44435e-07 -3.36001 
559 2 10.8881 9.35492 -33.7505 2.41841e-07 -3.36001 
560 2 8.59423 7.63479 -33.7505 2.42818e-07 -3.36001 
561 2 6.30033 5.91467 -33.7505 2.42482e-07 -3.36001 
562 2 -1.43852 18.6245 -34.4254 1.63174e-07 -3.36001 
563 2 3.72098 11.744 -34.4254 1.64111e-07 -3.36001 
564 2 1.42707 10.0239 -34.4254 1.63436e-07 -3.36001 
565 2 -0.866827 8.30373 -34.4254 1.63759e-07 -3.36001 
566 2 4.29267 1.42322 -34.4254 1.63732e-07 -3.36001 
567 2 10.6027 16.9044 -34.4254 1.63485e-07 -3.36001 
568 2 8.30878 15.1842 -34.4254 1.64744e-07 -3.36001 
569 2 6.01488 13.4641 -34.4254 1.65165e-07 -3.36001 
570 2 11.1744 6.5836 -34.4254 1.64759e-07 -3.36001 
571 2 8.88048 4.86347 -34.4254 1.65109e-07 -3.36001 