ITEM: TIMESTEP
552
ITEM: NUMBER OF ATOMS
1332
ITEM: BOX BOUNDS pp ff pp
0.0000000000000000e+00 9.0560799999999997e+00
-1.3020099999999999e+02 1.3020099999999999e+02
0.0000000000000000e+00 1.1091400000000000e+01
ITEM: ATOMS id type x y z c_csym c_eng 
1 1 7.54945 -109.854 2.54242 37.929 -2.76571 
2 1 0.297724 -106.613 1.06917 0.00706675 -3.33359 
3 1 6.65196 -107.402 1.42665 0.0246424 -3.28279 
4 1 0.304588 -109.854 4.7607 37.929 -2.76571 
5 1 8.46318 -107.402 3.64493 0.0246425 -3.28279 
6 1 1.24103 -109.104 2.14753 24.4026 -3.01603 
7 1 1.21831 -107.402 5.86321 0.0246425 -3.28279 
8 1 5.74681 -108.269 4.01428 15.8274 -3.16153 
9 1 3.93559 -108.269 1.796 15.8274 -3.16153 
10 1 3.05225 -109.104 4.36581 24.4026 -3.01603 
11 1 3.92016 -106.613 5.50573 0.00706675 -3.33359 
12 1 2.10894 -106.613 3.28745 0.00706675 -3.33359 
13 1 0.293866 -104.953 4.76946 0.00454918 -3.35519 
14 1 6.63351 -105.797 5.13886 0.00723946 -3.3573 
15 1 7.53873 -104.953 2.55118 0.00454918 -3.35519 
16 1 6.63505 -102.479 1.44046 0.000253551 -3.35993 
17 1 8.44626 -102.479 3.65874 0.000253554 -3.35993 
18 1 1.20261 -104.136 2.1789 0.000255006 -3.36122 
19 1 1.2014 -102.479 5.87702 0.000253553 -3.35993 
20 1 5.72891 -103.312 4.02889 0.000431416 -3.3618 
21 1 3.01107 -105.797 0.702297 0.00723945 -3.3573 
22 1 4.82229 -105.797 2.92058 0.00723946 -3.3573 
23 1 3.01383 -104.136 4.39718 0.000255006 -3.36122 
24 1 3.9177 -103.312 1.81061 0.000431414 -3.3618 
25 1 0.296332 -101.655 1.07031 2.05472e-05 -3.36002 
26 1 7.54078 -100.001 2.5495 1.9258e-05 -3.35978 
27 1 6.6351 -100.829 5.13755 3.82559e-05 -3.36068 
28 1 0.295918 -100.001 4.76778 1.92583e-05 -3.35978 
29 1 1.20169 -99.1749 2.17965 1.76853e-06 -3.35995 
30 1 5.72959 -98.3484 4.02834 2.91485e-06 -3.36014 
31 1 3.01267 -100.829 0.700991 3.82562e-05 -3.36068 
32 1 4.82389 -100.829 2.91927 3.82561e-05 -3.36068 
33 1 2.10755 -101.655 3.28859 2.05471e-05 -3.36002 
34 1 3.91837 -98.3484 1.81006 2.91482e-06 -3.36014 
35 1 3.91876 -101.655 5.50687 2.05474e-05 -3.36002 
36 1 3.01291 -99.1749 4.39793 1.76867e-06 -3.35995 
37 1 0.296008 -96.6948 1.07057 1.41981e-07 -3.35998 
38 1 6.63522 -97.5212 1.44032 1.52012e-06 -3.35993 
39 1 8.44644 -97.5212 3.6586 1.52022e-06 -3.35993 
40 1 0.295975 -95.0413 4.76773 1.1726e-07 -3.35998 
41 1 6.63522 -95.8681 5.13745 2.10633e-07 -3.36004 
42 1 7.54084 -95.0413 2.54945 1.17272e-07 -3.35998 
43 1 1.20157 -97.5212 5.87688 1.52008e-06 -3.35993 
44 1 1.2016 -94.2146 2.17973 1.11237e-08 -3.36 
45 1 5.72962 -93.3879 4.02831 1.50438e-08 -3.36001 
46 1 3.01279 -95.8681 0.700894 2.10647e-07 -3.36004 
47 1 4.82401 -95.8681 2.91917 2.10636e-07 -3.36004 
48 1 3.91844 -96.6948 5.50713 1.41969e-07 -3.35998 
49 1 2.10722 -96.6948 3.28885 1.41963e-07 -3.35998 
50 1 3.01281 -94.2146 4.39801 1.11217e-08 -3.36 
51 1 3.91841 -93.3879 1.81003 1.50516e-08 -3.36001 
52 1 6.63523 -92.5612 1.44031 8.95398e-09 -3.35999 
53 1 8.44645 -92.5612 3.65859 8.94044e-09 -3.35999 
54 1 0.295982 -91.7345 1.0706 8.77955e-10 -3.36 
55 1 7.54084 -90.0811 2.54945 6.79704e-10 -3.36 
56 1 6.63523 -90.9078 5.13744 1.06806e-09 -3.36 
57 1 0.295979 -90.0811 4.76773 6.78434e-10 -3.36 
58 1 1.20159 -89.2544 2.17974 6.91318e-11 -3.36 
59 1 1.20159 -92.5612 5.87687 8.94834e-09 -3.35999 
60 1 3.0128 -90.9078 0.700885 1.07321e-09 -3.36 
61 1 4.82402 -90.9078 2.91916 1.06938e-09 -3.36 
62 1 2.1072 -91.7345 3.28888 8.76351e-10 -3.36 
63 1 3.91841 -91.7345 5.50716 8.76016e-10 -3.36 
64 1 3.0128 -89.2544 4.39802 6.92328e-11 -3.36 
65 1 7.55802 -108.269 6.23256 15.8274 -3.16153 
66 1 6.67468 -109.104 8.80237 24.4026 -3.01603 
67 1 8.4859 -109.104 11.0206 24.4026 -3.01603 
68 1 0.313158 -108.269 8.45084 15.8274 -3.16153 
69 1 7.54259 -106.613 9.94229 0.00706676 -3.33359 
70 1 5.73824 -109.854 0.32414 37.929 -2.76571 
71 1 5.73137 -106.613 7.72401 0.00706677 -3.33359 
72 1 4.86347 -109.104 6.58409 24.4026 -3.01603 
73 1 2.1158 -109.854 6.97898 37.929 -2.76571 
74 1 3.92702 -109.854 9.19726 37.929 -2.76571 
75 1 3.02953 -107.402 8.08149 0.0246424 -3.28279 
76 1 4.84074 -107.402 10.2998 0.0246424 -3.28279 
77 1 2.12437 -108.269 10.6691 15.8274 -3.16153 
78 1 8.44472 -105.797 7.35714 0.00723945 -3.3573 
79 1 0.295266 -103.312 8.46545 0.00043141 -3.3618 
80 1 6.63626 -104.136 8.83374 0.000255005 -3.36122 
81 1 7.54013 -103.312 6.24717 0.000431411 -3.3618 
82 1 8.44748 -104.136 11.052 0.000255004 -3.36122 
83 1 1.19986 -105.797 9.57542 0.00723945 -3.3573 
84 1 5.72751 -104.953 0.332896 0.00454916 -3.35519 
85 1 4.82505 -104.136 6.61546 0.000255007 -3.36122 
86 1 3.9163 -104.953 9.20602 0.00454916 -3.35519 
87 1 2.10508 -104.953 6.98774 0.00454917 -3.35519 
88 1 3.01262 -102.479 8.0953 0.00025355 -3.35993 
89 1 4.82383 -102.479 10.3136 0.000253548 -3.35993 
90 1 2.10648 -103.312 10.6837 0.000431412 -3.3618 
91 1 8.44632 -100.829 7.35583 3.82551e-05 -3.36068 
92 1 7.5408 -98.3484 6.24662 2.91486e-06 -3.36014 
93 1 7.5412 -101.655 9.94343 2.05471e-05 -3.36002 
94 1 6.63534 -99.1749 8.83449 1.76851e-06 -3.35995 
95 1 8.44656 -99.1749 11.0528 1.76846e-06 -3.35995 
96 1 0.295939 -98.3484 8.4649 2.91467e-06 -3.36014 
97 1 1.20146 -100.829 9.57411 3.82553e-05 -3.36068 
98 1 5.72957 -100.001 0.331221 1.92574e-05 -3.35978 
99 1 5.72998 -101.655 7.72515 2.05471e-05 -3.36002 
100 1 4.82412 -99.1749 6.61621 1.76853e-06 -3.35995 
101 1 2.10713 -100.001 6.98606 1.9258e-05 -3.35978 
102 1 3.91835 -100.001 9.20434 1.92572e-05 -3.35978 
103 1 2.10715 -98.3484 10.6832 2.91501e-06 -3.36014 
104 1 8.44644 -95.8681 7.35573 2.10623e-07 -3.36004 
105 1 7.54087 -96.6948 9.94369 1.41935e-07 -3.35998 
106 1 0.295976 -93.3879 8.46487 1.50539e-08 -3.36001 
107 1 6.63524 -94.2146 8.83457 1.11228e-08 -3.36 
108 1 7.54084 -93.3879 6.24659 1.50437e-08 -3.36001 
109 1 8.44646 -94.2146 11.0529 1.11248e-08 -3.36 
110 1 1.20158 -95.8681 9.57401 2.10665e-07 -3.36004 
111 1 5.72962 -95.0413 0.331174 1.17246e-07 -3.35998 
112 1 5.72966 -96.6948 7.72541 1.41947e-07 -3.35998 
113 1 3.01279 -97.5212 8.09516 1.52007e-06 -3.35993 
114 1 4.824 -97.5212 10.3134 1.51992e-06 -3.35993 
115 1 4.82403 -94.2146 6.61629 1.11183e-08 -3.36 
116 1 3.91841 -95.0413 9.20429 1.17232e-07 -3.35998 
117 1 2.10719 -95.0413 6.98601 1.17246e-07 -3.35998 
118 1 2.10719 -93.3879 10.6831 1.50635e-08 -3.36001 
119 1 8.44645 -90.9078 7.35572 1.07029e-09 -3.36 
120 1 7.54085 -91.7345 9.94372 8.78833e-10 -3.36 
121 1 6.63524 -89.2544 8.83458 6.9357e-11 -3.36 
122 1 8.44645 -89.2544 11.0529 6.98697e-11 -3.36 
123 1 1.20159 -90.9078 9.574 1.07449e-09 -3.36 
124 1 5.72963 -90.0811 0.331171 6.78018e-10 -3.36 
125 1 5.72963 -91.7345 7.72544 8.7758e-10 -3.36 
126 1 3.0128 -92.5612 8.09515 8.94922e-09 -3.35999 
127 1 4.82402 -89.2544 6.6163 6.96632e-11 -3.36 
128 1 2.1072 -90.0811 6.98601 6.79487e-10 -3.36 
129 1 4.82402 -92.5612 10.3134 8.945e-09 -3.35999 
130 1 3.91841 -90.0811 9.20429 6.79004e-10 -3.36 
131 1 0.29598 -86.7743 1.0706 5.66755e-12 -3.36 
132 1 6.63524 -87.601 1.44031 5.12809e-11 -3.36 
133 1 8.44645 -87.601 3.65859 5.1186e-11 -3.36 
134 1 0.295979 -85.1209 4.76773 3.7604e-12 -3.36 
135 1 6.63524 -85.9476 5.13744 5.19272e-12 -3.36 
136 1 7.54084 -85.1209 2.54945 3.70946e-12 -3.36 
137 1 1.20159 -87.601 5.87687 5.08093e-11 -3.36 
138 1 5.72963 -88.4277 4.0283 7.54829e-11 -3.36 
139 1 3.91841 -88.4277 1.81002 7.58504e-11 -3.36 
140 1 3.0128 -85.9476 0.700884 5.19279e-12 -3.36 
141 1 4.82402 -85.9476 2.91916 5.15769e-12 -3.36 
142 1 3.91841 -86.7743 5.50716 5.48775e-12 -3.36 
143 1 2.1072 -86.7743 3.28888 5.59129e-12 -3.36 
144 1 6.63524 -82.6408 1.44031 3.14474e-13 -3.36 
145 1 8.44645 -82.6408 3.65859 2.60933e-13 -3.36 
146 1 0.29598 -81.8141 1.0706 9.23969e-14 -3.36 
147 1 7.54084 -80.1607 2.54945 2.92412e-14 -3.36 
148 1 6.63524 -80.9874 5.13744 3.00696e-14 -3.36 
149 1 0.29598 -80.1607 4.76773 4.99764e-14 -3.36 
150 1 1.20159 -84.2942 2.17974 5.26861e-13 -3.36 
151 1 1.20159 -82.6408 5.87687 3.30953e-13 -3.36 
152 1 5.72963 -83.4675 4.0283 3.42642e-13 -3.36 
153 1 3.0128 -84.2942 4.39802 4.78499e-13 -3.36 
154 1 3.91841 -83.4675 1.81002 3.33923e-13 -3.36 
155 1 3.0128 -80.9874 0.700884 4.37555e-14 -3.36 
156 1 4.82402 -80.9874 2.91916 4.2496e-14 -3.36 
157 1 2.1072 -81.8141 3.28888 7.16343e-14 -3.36 
158 1 3.91841 -81.8141 5.50716 5.55907e-14 -3.36 
159 1 0.29598 -76.8538 1.0706 2.31105e-14 -3.36 
160 1 6.63524 -77.6806 1.44031 1.46234e-14 -3.36 
161 1 8.44645 -77.6806 3.65859 3.05795e-14 -3.36 
162 1 6.63524 -76.0271 5.13744 1.41174e-14 -3.36 
163 1 1.20159 -79.334 2.17974 2.27786e-14 -3.36 
164 1 1.20159 -77.6806 5.87687 1.52906e-14 -3.36 
165 1 5.72963 -78.5073 4.0283 6.70336e-15 -3.36 
166 1 3.91841 -78.5073 1.81002 4.8808e-14 -3.36 
167 1 3.0128 -76.0271 0.700884 3.11427e-14 -3.36 
168 1 3.0128 -79.334 4.39802 1.39905e-14 -3.36 
169 1 4.82402 -76.0271 2.91916 2.0098e-14 -3.36 
170 1 3.91841 -76.8538 5.50716 2.57475e-14 -3.36 
171 1 2.1072 -76.8538 3.28888 2.61609e-14 -3.36 
172 1 0.29598 -75.2004 4.76773 6.3854e-15 -3.36 
173 1 7.54084 -75.2004 2.54945 2.10769e-14 -3.36 
174 1 6.63524 -72.7203 1.44031 1.11535e-14 -3.36 
175 1 8.44645 -72.7203 3.65859 3.60729e-15 -3.36 
176 1 0.29598 -71.8936 1.0706 6.01723e-15 -3.36 
177 1 1.20159 -74.3737 2.17974 5.45311e-15 -3.36 
178 1 1.20159 -72.7203 5.87687 1.28389e-14 -3.36 
179 1 5.72963 -73.547 4.0283 2.00571e-14 -3.36 
180 1 3.0128 -74.3737 4.39802 1.02731e-14 -3.36 
181 1 3.91841 -73.547 1.81002 1.05865e-14 -3.36 
182 1 2.1072 -71.8936 3.28888 7.00728e-15 -3.36 
183 1 3.91841 -71.8936 5.50716 1.60281e-14 -3.36 
184 1 7.54084 -70.2402 2.54945 9.07916e-15 -3.36 
185 1 0.29598 -66.9334 1.0706 3.32556e-14 -3.36 
186 1 6.63524 -67.7601 1.44031 1.94239e-14 -3.36 
187 1 6.63524 -71.0669 5.13744 2.88119e-14 -3.36 
188 1 0.29598 -70.2402 4.76773 2.17203e-14 -3.36 
189 1 8.44645 -67.7601 3.65859 3.90682e-14 -3.36 
190 1 1.20159 -69.4135 2.17974 7.27002e-15 -3.36 
191 1 1.20159 -67.7601 5.87687 3.17904e-14 -3.36 
192 1 5.72963 -68.5868 4.0283 2.52205e-14 -3.36 
193 1 3.0128 -71.0669 0.700884 1.29111e-14 -3.36 
194 1 4.82402 -71.0669 2.91916 3.98284e-14 -3.36 
195 1 3.91841 -68.5868 1.81002 3.78307e-14 -3.36 
196 1 3.0128 -69.4135 4.39802 2.58056e-14 -3.36 
197 1 3.91841 -66.9334 5.50716 5.59451e-14 -3.36 
198 1 2.1072 -66.9334 3.28888 2.71996e-14 -3.36 
199 1 7.54084 -88.4277 6.24658 7.57688e-11 -3.36 
200 1 0.295979 -88.4277 8.46486 7.56759e-11 -3.36 
201 1 8.44645 -85.9476 7.35572 5.19876e-12 -3.36 
202 1 7.54084 -86.7743 9.94372 5.62904e-12 -3.36 
203 1 1.20159 -85.9476 9.574 5.38815e-12 -3.36 
204 1 5.72963 -85.1209 0.331171 3.88573e-12 -3.36 
205 1 5.72963 -86.7743 7.72544 5.38896e-12 -3.36 
206 1 3.0128 -87.601 8.09515 5.10761e-11 -3.36 
207 1 4.82402 -87.601 10.3134 5.09082e-11 -3.36 
208 1 2.1072 -88.4277 10.6831 7.68437e-11 -3.36 
209 1 3.91841 -85.1209 9.20429 3.86618e-12 -3.36 
210 1 2.1072 -85.1209 6.98601 3.83406e-12 -3.36 
211 1 0.295979 -83.4675 8.46486 3.84786e-13 -3.36 
212 1 6.63524 -84.2942 8.83458 4.31782e-13 -3.36 
213 1 7.54084 -83.4675 6.24658 3.46166e-13 -3.36 
214 1 8.44645 -80.9874 7.35572 5.11083e-14 -3.36 
215 1 8.44645 -84.2942 11.0529 5.22846e-13 -3.36 
216 1 7.54084 -81.8141 9.94372 5.03505e-14 -3.36 
217 1 1.20159 -80.9874 9.574 2.22062e-14 -3.36 
218 1 5.72963 -80.1607 0.331171 2.9445e-14 -3.36 
219 1 5.72963 -81.8141 7.72544 3.06281e-14 -3.36 
220 1 4.82402 -84.2942 6.6163 4.49068e-13 -3.36 
221 1 3.0128 -82.6408 8.09515 2.98877e-13 -3.36 
222 1 2.1072 -80.1607 6.98601 3.98124e-14 -3.36 
223 1 4.82402 -82.6408 10.3134 3.22262e-13 -3.36 
224 1 2.1072 -83.4675 10.6831 3.60478e-13 -3.36 
225 1 3.91841 -80.1607 9.20429 2.57673e-14 -3.36 
226 1 7.54084 -78.5073 6.24658 8.77132e-15 -3.36 
227 1 6.63524 -79.334 8.83458 1.64697e-14 -3.36 
228 1 8.44645 -79.334 11.0529 2.00037e-14 -3.36 
229 1 0.29598 -78.5073 8.46486 1.24156e-14 -3.36 
230 1 8.44645 -76.0271 7.35572 7.02046e-15 -3.36 
231 1 7.54084 -76.8538 9.94372 2.72297e-14 -3.36 
232 1 1.20159 -76.0271 9.574 2.6424e-14 -3.36 
233 1 5.72963 -76.8538 7.72544 2.53957e-14 -3.36 
234 1 4.82402 -79.334 6.6163 9.09665e-15 -3.36 
235 1 3.0128 -77.6806 8.09515 6.94644e-15 -3.36 
236 1 4.82402 -77.6806 10.3134 1.97746e-14 -3.36 
237 1 2.1072 -78.5073 10.6831 1.71547e-14 -3.36 
238 1 0.29598 -73.547 8.46486 2.6991e-14 -3.36 
239 1 6.63524 -74.3737 8.83458 1.34747e-14 -3.36 
240 1 7.54084 -73.547 6.24658 1.05633e-14 -3.36 
241 1 8.44645 -74.3737 11.0529 1.96705e-14 -3.36 
242 1 7.54084 -71.8936 9.94372 2.79998e-14 -3.36 
243 1 5.72963 -75.2004 0.331171 1.92397e-14 -3.36 
244 1 5.72963 -71.8936 7.72544 2.06213e-14 -3.36 
245 1 4.82402 -74.3737 6.6163 2.74342e-14 -3.36 
246 1 3.91841 -75.2004 9.20429 2.86833e-14 -3.36 
247 1 2.1072 -75.2004 6.98601 3.52818e-14 -3.36 
248 1 3.0128 -72.7203 8.09515 7.53495e-15 -3.36 
249 1 4.82402 -72.7203 10.3134 1.93078e-14 -3.36 
250 1 2.1072 -73.547 10.6831 2.12007e-14 -3.36 
251 1 8.44645 -71.0669 7.35572 1.90071e-14 -3.36 
252 1 7.54084 -68.5868 6.24658 2.00614e-14 -3.36 
253 1 6.63524 -69.4135 8.83458 1.23728e-14 -3.36 
254 1 8.44645 -69.4135 11.0529 1.27549e-14 -3.36 
255 1 0.29598 -68.5868 8.46486 3.37993e-14 -3.36 
256 1 7.54084 -66.9334 9.94372 2.12924e-14 -3.36 
257 1 1.20159 -71.0669 9.574 3.57046e-14 -3.36 
258 1 5.72963 -70.2402 0.331171 2.14041e-14 -3.36 
259 1 5.72963 -66.9334 7.72544 1.86169e-14 -3.36 
260 1 4.82402 -69.4135 6.6163 2.79781e-14 -3.36 
261 1 2.1072 -70.2402 6.98601 1.89373e-14 -3.36 
262 1 3.91841 -70.2402 9.20429 1.23545e-14 -3.36 
263 1 3.0128 -67.7601 8.09515 3.74155e-14 -3.36 
264 1 4.82402 -67.7601 10.3134 1.98766e-14 -3.36 
265 1 2.1072 -68.5868 10.6831 1.26097e-14 -3.36 
266 1 0.29598 -65.28 4.76773 1.60244e-14 -3.36 
267 1 6.63524 -66.1067 5.13744 3.26566e-14 -3.36 
268 1 7.54084 -65.28 2.54945 1.56719e-14 -3.36 
269 1 6.63524 -62.7999 1.44031 1.68327e-14 -3.36 
270 1 8.44645 -62.7999 3.65859 5.41906e-14 -3.36 
271 1 1.20159 -64.4533 2.17974 6.4582e-14 -3.36 
272 1 1.20159 -62.7999 5.87687 1.78847e-14 -3.36 
273 1 5.72963 -63.6266 4.0283 3.92032e-14 -3.36 
274 1 3.0128 -66.1067 0.700884 3.74352e-14 -3.36 
275 1 4.82402 -66.1067 2.91916 1.21578e-14 -3.36 
276 1 3.0128 -64.4533 4.39802 1.35076e-14 -3.36 
277 1 3.91841 -63.6266 1.81002 1.18207e-14 -3.36 
278 1 0.295979 -61.9732 1.0706 2.24507e-14 -3.36 
279 1 7.54084 -60.3198 2.54945 3.52395e-14 -3.36 
280 1 6.63524 -61.1465 5.13744 1.24985e-14 -3.36 
281 1 0.295979 -60.3198 4.76773 4.85326e-15 -3.36 
282 1 1.20159 -59.4931 2.17974 1.5578e-14 -3.36 
283 1 5.72963 -58.6664 4.0283 1.72434e-14 -3.36 
284 1 3.0128 -61.1465 0.700884 1.62877e-14 -3.36 
285 1 4.82402 -61.1465 2.91916 8.40327e-15 -3.36 
286 1 2.1072 -61.9732 3.28888 4.39937e-15 -3.36 
287 1 3.91841 -58.6664 1.81002 1.6569e-14 -3.36 
288 1 3.91841 -61.9732 5.50716 1.15938e-14 -3.36 
289 1 3.0128 -59.4931 4.39802 9.54807e-15 -3.36 
290 1 0.295979 -57.013 1.0706 2.65677e-14 -3.36 
291 1 6.63523 -57.8397 1.44031 3.28158e-14 -3.36 
292 1 8.44645 -57.8397 3.65859 7.11011e-15 -3.36 
293 1 0.295979 -55.3595 4.76773 2.58997e-14 -3.36 
294 1 6.63523 -56.1863 5.13744 3.64773e-14 -3.36 
295 1 7.54084 -55.3595 2.54945 3.33175e-14 -3.36 
296 1 1.20159 -57.8397 5.87687 2.52995e-14 -3.36 
297 1 1.20159 -54.5328 2.17974 1.29012e-14 -3.36 
298 1 5.72963 -53.7061 4.0283 4.11836e-14 -3.36 
299 1 3.0128 -56.1863 0.700884 2.19683e-14 -3.36 
300 1 4.82402 -56.1863 2.91916 1.52339e-14 -3.36 
301 1 3.91841 -57.013 5.50716 8.80944e-15 -3.36 
302 1 2.10719 -57.013 3.28888 1.06139e-14 -3.36 
303 1 3.0128 -54.5328 4.39802 4.42225e-14 -3.36 
304 1 3.91841 -53.7061 1.81002 1.79304e-14 -3.36 
305 1 6.63523 -52.8794 1.44031 4.17582e-14 -3.36 
306 1 8.44645 -52.8794 3.65859 3.98087e-14 -3.36 
307 1 0.295978 -52.0527 1.0706 2.1021e-14 -3.36 
308 1 7.54084 -50.3993 2.54945 4.51649e-14 -3.36 
309 1 6.63523 -51.226 5.13744 1.97127e-14 -3.36 
310 1 0.295978 -50.3993 4.76773 3.37534e-14 -3.36 
311 1 1.20159 -49.5726 2.17974 4.39654e-14 -3.36 
312 1 1.20159 -52.8794 5.87687 9.5264e-14 -3.36 
313 1 3.0128 -51.226 0.700884 8.98679e-15 -3.36 
314 1 4.82402 -51.226 2.91916 1.636e-14 -3.36 
315 1 2.10719 -52.0527 3.28888 1.7652e-14 -3.36 
316 1 3.91841 -52.0527 5.50716 3.57493e-14 -3.36 
317 1 3.0128 -49.5726 4.39802 3.31175e-14 -3.36 
318 1 0.295978 -47.0925 1.0706 7.96279e-15 -3.36 
319 1 6.63523 -47.9192 1.44031 1.09997e-14 -3.36 
320 1 8.44645 -47.9192 3.65859 2.59267e-14 -3.36 
321 1 0.295978 -45.4391 4.76773 1.85698e-14 -3.36 
322 1 6.63523 -46.2658 5.13744 1.9023e-14 -3.36 
323 1 7.54084 -45.4391 2.54945 1.70769e-14 -3.36 
324 1 1.20159 -47.9192 5.87687 1.58439e-14 -3.36 
325 1 5.72963 -48.7459 4.0283 1.79665e-14 -3.36 
326 1 3.91841 -48.7459 1.81002 5.21038e-14 -3.36 
327 1 3.0128 -46.2658 0.700884 2.35764e-14 -3.36 
328 1 4.82402 -46.2658 2.91916 4.05255e-14 -3.36 
329 1 3.91841 -47.0925 5.50716 2.67895e-14 -3.36 
330 1 2.10719 -47.0925 3.28888 1.19247e-14 -3.36 
331 1 8.44645 -66.1067 7.35572 3.85863e-14 -3.36 
332 1 0.295979 -63.6266 8.46486 1.15444e-14 -3.36 
333 1 6.63524 -64.4533 8.83458 2.30979e-14 -3.36 
334 1 7.54084 -63.6266 6.24658 2.10174e-14 -3.36 
335 1 8.44645 -64.4533 11.0529 1.62846e-14 -3.36 
336 1 1.20159 -66.1067 9.574 3.47835e-14 -3.36 
337 1 5.72963 -65.28 0.331171 2.04335e-14 -3.36 
338 1 4.82402 -64.4533 6.6163 1.75931e-14 -3.36 
339 1 3.91841 -65.28 9.20429 5.89679e-14 -3.36 
340 1 2.1072 -65.28 6.98601 4.37307e-14 -3.36 
341 1 3.0128 -62.7999 8.09515 7.39756e-15 -3.36 
342 1 4.82402 -62.7999 10.3134 1.64725e-14 -3.36 
343 1 2.1072 -63.6266 10.6831 2.02156e-14 -3.36 
344 1 8.44645 -61.1465 7.35572 1.78926e-14 -3.36 
345 1 7.54084 -58.6664 6.24658 1.54553e-14 -3.36 
346 1 7.54084 -61.9732 9.94372 3.11311e-14 -3.36 
347 1 6.63524 -59.4931 8.83458 2.13105e-14 -3.36 
348 1 8.44645 -59.4931 11.0529 2.48328e-14 -3.36 
349 1 0.295979 -58.6664 8.46486 2.18225e-14 -3.36 
350 1 1.20159 -61.1465 9.574 1.2823e-14 -3.36 
351 1 5.72963 -60.3198 0.331171 2.08626e-14 -3.36 
352 1 5.72963 -61.9732 7.72544 2.12974e-14 -3.36 
353 1 4.82402 -59.4931 6.6163 2.91129e-14 -3.36 
354 1 2.1072 -60.3198 6.98601 1.14559e-14 -3.36 
355 1 3.91841 -60.3198 9.20429 2.3897e-14 -3.36 
356 1 2.10719 -58.6664 10.6831 5.4905e-15 -3.36 
357 1 8.44645 -56.1863 7.35572 1.63851e-14 -3.36 
358 1 7.54084 -57.013 9.94372 2.52652e-14 -3.36 
359 1 0.295979 -53.7061 8.46486 1.94793e-14 -3.36 
360 1 6.63523 -54.5328 8.83458 2.09732e-14 -3.36 
361 1 7.54084 -53.7061 6.24658 6.66712e-14 -3.36 
362 1 8.44645 -54.5328 11.0529 1.75695e-14 -3.36 
363 1 1.20159 -56.1863 9.574 9.94406e-15 -3.36 
364 1 5.72963 -55.3595 0.331171 7.76178e-15 -3.36 
365 1 5.72963 -57.013 7.72544 1.7919e-14 -3.36 
366 1 3.0128 -57.8397 8.09515 1.69996e-14 -3.36 
367 1 4.82402 -57.8397 10.3134 2.77505e-14 -3.36 
368 1 4.82402 -54.5328 6.6163 3.6238e-14 -3.36 
369 1 3.91841 -55.3595 9.20429 2.1397e-14 -3.36 
370 1 2.10719 -55.3595 6.98601 4.08232e-14 -3.36 
371 1 2.10719 -53.7061 10.6831 2.1256e-14 -3.36 
372 1 8.44645 -51.226 7.35572 1.66054e-14 -3.36 
373 1 7.54084 -52.0527 9.94372 1.61785e-14 -3.36 
374 1 6.63523 -49.5726 8.83458 3.26129e-14 -3.36 
375 1 8.44645 -49.5726 11.0529 3.38945e-14 -3.36 
376 1 1.20159 -51.226 9.574 1.48972e-14 -3.36 
377 1 5.72963 -50.3993 0.331171 2.24435e-14 -3.36 
378 1 5.72963 -52.0527 7.72544 1.27595e-14 -3.36 
379 1 3.0128 -52.8794 8.09515 3.21484e-14 -3.36 
380 1 4.82402 -49.5726 6.6163 2.2488e-14 -3.36 
381 1 2.10719 -50.3993 6.98601 1.22697e-14 -3.36 
382 1 4.82402 -52.8794 10.3134 1.54886e-14 -3.36 
383 1 3.91841 -50.3993 9.20429 1.94585e-14 -3.36 
384 1 7.54084 -48.7459 6.24658 1.44816e-14 -3.36 
385 1 0.295978 -48.7459 8.46486 2.38232e-14 -3.36 
386 1 8.44645 -46.2658 7.35572 2.50004e-14 -3.36 
387 1 7.54084 -47.0925 9.94372 1.27331e-14 -3.36 
388 1 1.20159 -46.2658 9.574 1.37929e-14 -3.36 
389 1 5.72963 -45.4391 0.331171 1.90079e-14 -3.36 
390 1 5.72963 -47.0925 7.72544 2.93918e-14 -3.36 
391 1 3.0128 -47.9192 8.09515 3.36727e-14 -3.36 
392 1 4.82402 -47.9192 10.3134 4.09039e-14 -3.36 
393 1 2.10719 -48.7459 10.6831 3.4127e-14 -3.36 
394 1 3.91841 -45.4391 9.20429 1.50657e-14 -3.36 
395 1 2.10719 -45.4391 6.98601 1.14727e-14 -3.36 
396 1 6.63523 -42.959 1.44031 2.33698e-14 -3.36 
397 1 8.44645 -42.959 3.65859 3.68939e-14 -3.36 
398 1 0.295978 -42.1323 1.0706 4.70816e-14 -3.36 
399 1 6.63523 -41.3056 5.13744 2.68637e-14 -3.36 
400 1 1.20159 -44.6124 2.17974 4.35378e-14 -3.36 
401 1 1.20159 -42.959 5.87687 1.23305e-14 -3.36 
402 1 5.72963 -43.7857 4.0283 1.5657e-14 -3.36 
403 1 3.0128 -44.6124 4.39802 2.97288e-14 -3.36 
404 1 3.91841 -43.7857 1.81002 1.62779e-14 -3.36 
405 1 3.0128 -41.3056 0.700884 4.88726e-14 -3.36 
406 1 4.82402 -41.3056 2.91916 3.45208e-14 -3.36 
407 1 2.10719 -42.1323 3.28888 3.3662e-14 -3.36 
408 1 3.91841 -42.1323 5.50716 1.46471e-14 -3.36 
409 1 7.54084 -40.4789 2.54945 5.18679e-14 -3.36 
410 1 0.295978 -40.4789 4.76773 7.08501e-14 -3.36 
411 1 0.295978 -37.1721 1.0706 4.85595e-14 -3.36 
412 1 6.63523 -37.9988 1.44031 5.51729e-14 -3.36 
413 1 8.44645 -37.9988 3.65859 6.1555e-14 -3.36 
414 1 6.63523 -36.3454 5.13744 9.54791e-14 -3.36 
415 1 1.20159 -39.6522 2.17974 3.63066e-14 -3.36 
416 1 1.20159 -37.9988 5.87687 3.61014e-14 -3.36 
417 1 5.72963 -38.8255 4.0283 5.29921e-14 -3.36 
418 1 3.91841 -38.8255 1.81002 7.47435e-14 -3.36 
419 1 3.0128 -36.3454 0.700884 5.16845e-14 -3.36 
420 1 3.0128 -39.6522 4.39802 5.32863e-14 -3.36 
421 1 4.82402 -36.3454 2.91916 7.476e-14 -3.36 
422 1 3.91841 -37.1721 5.50716 4.48491e-14 -3.36 
423 1 2.10719 -37.1721 3.28888 5.05442e-14 -3.36 
424 1 0.295979 -35.5187 4.76773 1.36661e-13 -3.36 
425 1 7.54084 -35.5187 2.54945 2.05222e-13 -3.36 
426 1 6.63523 -33.0385 1.44031 1.56093e-12 -3.36 
427 1 8.44645 -33.0385 3.65859 1.8231e-12 -3.36 
428 1 0.295979 -32.2118 1.0706 1.85415e-12 -3.36 
429 1 1.20159 -34.692 2.17974 2.86246e-13 -3.36 
430 1 1.20159 -33.0385 5.87687 8.38612e-13 -3.36 
431 1 5.72963 -33.8652 4.0283 9.46678e-13 -3.36 
432 1 3.0128 -34.692 4.39802 2.91924e-13 -3.36 
433 1 3.91841 -33.8652 1.81002 6.04855e-13 -3.36 
434 1 2.10719 -32.2118 3.28888 2.34922e-12 -3.36 
435 1 3.91841 -32.2118 5.50716 1.82115e-12 -3.36 
436 1 7.54084 -30.5584 2.54945 1.35065e-11 -3.36 
437 1 6.63523 -28.0783 1.44031 1.29439e-10 -3.36 
438 1 6.63524 -31.3851 5.13744 7.54886e-12 -3.36 
439 1 0.295979 -30.5584 4.76773 1.16703e-11 -3.36 
440 1 8.44645 -28.0783 3.65859 1.1167e-10 -3.36 
441 1 1.20159 -29.7317 2.17974 1.23461e-11 -3.36 
442 1 1.20159 -28.0783 5.87687 9.08525e-11 -3.36 
443 1 5.72963 -28.905 4.02831 5.83874e-11 -3.36 
444 1 3.0128 -31.3851 0.700884 3.02232e-12 -3.36 
445 1 4.82402 -31.3851 2.91916 5.30322e-12 -3.36 
446 1 3.91841 -28.905 1.81002 2.27151e-11 -3.36 
447 1 3.0128 -29.7317 4.39802 1.97246e-11 -3.36 
448 1 0.295978 -27.2516 1.0706 1.96568e-10 -3.36 
449 1 0.295979 -25.5982 4.76773 1.46468e-09 -3.36 
450 1 6.63524 -26.4249 5.13745 7.07551e-10 -3.36 
451 1 7.54084 -25.5982 2.54945 1.2056e-09 -3.36 
452 1 6.63522 -23.1181 1.44029 1.75554e-08 -3.35999 
453 1 8.44644 -23.1181 3.65859 2.14205e-08 -3.36 
454 1 1.20158 -24.7715 2.17973 2.10749e-09 -3.36 
455 1 1.20159 -23.1181 5.87689 2.01265e-08 -3.35999 
456 1 3.91841 -27.2516 5.50716 1.87553e-10 -3.36 
457 1 2.10719 -27.2516 3.28888 1.24416e-10 -3.36 
458 1 5.72963 -23.9448 4.02831 4.8786e-09 -3.36 
459 1 3.0128 -26.4249 0.700881 4.38689e-10 -3.36 
460 1 4.82402 -26.4249 2.91917 2.35274e-10 -3.36 
461 1 3.0128 -24.7715 4.39802 2.51642e-09 -3.36001 
462 1 3.9184 -23.9448 1.81002 3.40693e-09 -3.36001 
463 1 0.295978 -43.7857 8.46486 2.3007e-14 -3.36 
464 1 6.63523 -44.6124 8.83458 2.39885e-14 -3.36 
465 1 7.54084 -43.7857 6.24658 1.80682e-14 -3.36 
466 1 8.44645 -41.3056 7.35572 2.45428e-14 -3.36 
467 1 8.44645 -44.6124 11.0529 1.68984e-14 -3.36 
468 1 7.54084 -42.1323 9.94372 3.20991e-14 -3.36 
469 1 1.20159 -41.3056 9.574 2.37265e-14 -3.36 
470 1 5.72963 -42.1323 7.72544 1.98794e-14 -3.36 
471 1 4.82402 -44.6124 6.6163 1.66389e-14 -3.36 
472 1 3.0128 -42.959 8.09515 2.44554e-14 -3.36 
473 1 4.82402 -42.959 10.3134 4.93573e-14 -3.36 
474 1 2.10719 -43.7857 10.6831 5.63248e-14 -3.36 
475 1 7.54084 -38.8255 6.24658 4.52361e-14 -3.36 
476 1 6.63523 -39.6522 8.83458 1.78232e-14 -3.36 
477 1 8.44645 -39.6522 11.0529 3.37958e-14 -3.36 
478 1 0.295978 -38.8255 8.46486 4.57586e-14 -3.36 
479 1 8.44645 -36.3454 7.35572 1.09352e-13 -3.36 
480 1 7.54084 -37.1721 9.94372 1.03049e-13 -3.36 
481 1 1.20159 -36.3454 9.574 1.0334e-13 -3.36 
482 1 5.72963 -40.4789 0.331171 3.56695e-14 -3.36 
483 1 2.10719 -40.4789 6.98601 6.17738e-14 -3.36 
484 1 3.91841 -40.4789 9.20429 4.13641e-14 -3.36 
485 1 5.72963 -37.1721 7.72544 1.07595e-13 -3.36 
486 1 4.82402 -39.6522 6.6163 4.04577e-14 -3.36 
487 1 3.0128 -37.9988 8.09515 6.95671e-14 -3.36 
488 1 4.82402 -37.9988 10.3134 3.82836e-14 -3.36 
489 1 2.10719 -38.8255 10.6831 3.53421e-14 -3.36 
490 1 0.295979 -33.8652 8.46486 7.57373e-13 -3.36 
491 1 6.63523 -34.692 8.83458 4.55155e-13 -3.36 
492 1 7.54084 -33.8652 6.24658 6.63137e-13 -3.36 
493 1 8.44645 -34.692 11.0529 2.81181e-13 -3.36 
494 1 7.54084 -32.2118 9.94372 3.34317e-12 -3.36 
495 1 5.72963 -35.5187 0.331171 2.06498e-13 -3.36 
496 1 5.72963 -32.2118 7.72544 2.12217e-12 -3.36 
497 1 4.82402 -34.692 6.6163 2.45767e-13 -3.36 
498 1 3.91841 -35.5187 9.20429 2.35691e-13 -3.36 
499 1 2.10719 -35.5187 6.98601 1.18013e-13 -3.36 
500 1 3.0128 -33.0385 8.09515 1.32118e-12 -3.36 
501 1 4.82402 -33.0385 10.3134 1.84391e-12 -3.36 
502 1 2.10719 -33.8652 10.6831 4.90439e-13 -3.36 
503 1 8.44645 -31.3851 7.35572 6.24514e-12 -3.36 
504 1 7.54084 -28.905 6.24658 7.03709e-11 -3.36 
505 1 6.63524 -29.7317 8.83458 2.17589e-11 -3.36 
506 1 8.44645 -29.7317 11.0529 2.61539e-11 -3.36 
507 1 0.295979 -28.905 8.46486 6.22502e-11 -3.36 
508 1 1.20159 -31.3851 9.574 6.85213e-12 -3.36 
509 1 5.72963 -30.5584 0.33117 1.49994e-11 -3.36 
510 1 4.82402 -29.7317 6.6163 1.27355e-11 -3.36 
511 1 2.1072 -30.5584 6.98601 5.35541e-12 -3.36 
512 1 3.91841 -30.5584 9.20429 1.21288e-11 -3.36 
513 1 3.0128 -28.0783 8.09515 5.08788e-11 -3.36 
514 1 4.82402 -28.0783 10.3134 1.36586e-10 -3.36 
515 1 2.10719 -28.905 10.6831 5.00345e-11 -3.36 
516 1 7.54084 -27.2516 9.94372 2.21682e-10 -3.36 
517 1 8.44645 -26.4249 7.35573 7.00574e-10 -3.36 
518 1 0.295984 -23.9448 8.46487 6.83524e-09 -3.35999 
519 1 6.63524 -24.7715 8.83458 1.61546e-09 -3.36 
520 1 7.54085 -23.9448 6.24659 9.54035e-09 -3.36001 
521 1 8.44645 -24.7715 11.0529 2.23677e-09 -3.36 
522 1 1.20159 -26.4249 9.574 5.39573e-10 -3.36 
523 1 5.72963 -27.2516 7.72544 1.33041e-10 -3.36 
524 1 5.72963 -25.5982 0.331167 1.51957e-09 -3.36 
525 1 4.82403 -24.7715 6.6163 2.37499e-09 -3.36 
526 1 3.91841 -25.5982 9.20429 8.20863e-10 -3.36 
527 1 2.1072 -25.5982 6.98601 8.38938e-10 -3.36 
528 1 3.01281 -23.1181 8.09517 1.11592e-08 -3.35999 
529 1 4.82402 -23.1181 10.3134 1.25973e-08 -3.35999 
530 1 2.10719 -23.9448 10.6831 6.00875e-09 -3.36 
531 1 0.295967 -22.2914 1.07057 3.12347e-08 -3.36001 
532 1 7.54079 -20.6381 2.54937 3.47192e-07 -3.35999 
533 1 6.63524 -21.4647 5.13745 1.45184e-07 -3.36006 
534 1 0.295972 -20.6381 4.76774 3.42039e-07 -3.35997 
535 1 1.20154 -19.8113 2.17959 1.08467e-06 -3.36021 
536 1 5.72953 -18.9846 4.02814 3.09192e-06 -3.36025 
537 1 3.01278 -21.4647 0.700861 5.04748e-08 -3.36002 
538 1 4.824 -21.4647 2.91914 7.20958e-08 -3.36 
539 1 2.10717 -22.2914 3.28885 4.85244e-08 -3.36002 
540 1 3.91834 -18.9846 1.80994 1.84325e-06 -3.35994 
541 1 3.91842 -22.2914 5.50718 4.10269e-08 -3.36 
542 1 3.01278 -19.8115 4.39801 4.47189e-07 -3.35994 
543 1 0.295686 -17.3309 1.06984 2.89765e-05 -3.36059 
544 1 6.63503 -18.158 1.44007 4.0224e-06 -3.36005 
545 1 8.44639 -18.1584 3.65835 3.95972e-06 -3.35968 
546 1 0.295408 -15.6791 4.76724 9.46624e-05 -3.35969 
547 1 6.63531 -16.5051 5.13757 1.61827e-05 -3.35998 
548 1 7.54055 -15.6789 2.54847 4.8436e-05 -3.35916 
549 1 1.20153 -18.1581 5.87705 4.92467e-06 -3.36013 
550 1 1.20155 -14.8538 2.17913 0.000330859 -3.35982 
551 1 3.01288 -16.5042 0.700649 5.621e-05 -3.3599 
552 1 4.82331 -16.5039 2.9182 8.18385e-05 -3.36088 
553 1 3.91848 -17.3317 5.50722 1.00723e-05 -3.3595 
554 1 2.10732 -17.3316 3.28891 1.49771e-05 -3.36042 
555 1 3.01455 -14.8515 4.39934 0.000478055 -3.36045 
556 1 6.63683 -13.1994 1.43825 0.00141849 -3.35655 
557 1 8.44238 -13.198 3.65535 0.00185508 -3.36256 
558 1 0.295405 -12.3811 1.06686 0.00666063 -3.3561 
559 1 7.53104 -10.7019 2.53857 0.0428303 -3.36761 
560 1 6.63243 -11.5519 5.14076 0.00675992 -3.35083 
561 1 0.278193 -10.7334 4.7783 0.00965044 -3.366 
562 1 1.21278 -9.94652 2.18563 0.101369 -3.32336 
563 1 1.2003 -13.2058 5.87798 0.00215743 -3.35584 
564 1 5.72857 -14.0275 4.02809 0.000507721 -3.35927 
565 1 3.91583 -14.0204 1.80539 0.00207942 -3.36449 
566 1 3.00723 -11.5213 0.683155 0.0435566 -3.36556 
567 1 4.82182 -11.5569 2.917 0.00535676 -3.35551 
568 1 2.10953 -12.3824 3.29327 0.00510778 -3.3564 
569 1 3.92512 -12.3633 5.51518 0.00798826 -3.36835 
570 1 8.42847 -8.27048 3.70964 0.110953 -3.33388 
571 2 7.48731 -5.77629 2.7628 7.42309 -3.21692 
572 1 1.18804 -8.27011 5.8682 0.067446 -3.30357 
573 1 5.71925 -9.0972 4.01841 0.0698642 -3.33865 
574 1 3.92607 -9.08525 1.81852 0.104812 -3.35272 
575 2 4.82464 -6.60291 2.90711 6.53412 -3.3483 
576 2 5.62517 -3.82799 3.78705 11.8186 -3.34933 
577 2 7.57073 -1.87095 5.19132 6.1948 -3.31482 
578 2 6.6484 -0.911047 2.74152 0.314136 -3.29059 
579 2 3.96337 -0.077834 2.34307 0.0287847 -3.33965 
580 2 4.84624 -2.58064 1.24638 6.46729 -3.37249 
581 2 3.04469 -2.56008 3.40053 6.4872 -3.27827 
582 2 3.05057 0.743835 10.8453 0.00915326 -3.36437 
583 2 2.13918 -0.170183 4.56841 0.2377 -3.33753 
584 2 8.49019 -0.868418 0.495398 0.075877 -3.35045 
585 2 2.12211 -1.70739 0.890644 0.20631 -3.29844 
586 2 0.347306 -1.78586 3.10571 6.51609 -3.34685 
587 2 7.52889 -3.25125 1.72437 7.1681 -3.23487 
588 2 1.23848 0.732393 1.98321 0.010678 -3.34731 
589 2 8.4985 0.718633 4.18422 0.0335929 -3.35165 
590 1 8.44648 -21.4646 7.35577 1.14334e-07 -3.35997 
591 1 7.54093 -18.9845 6.24674 2.10069e-06 -3.36001 
592 1 7.54085 -22.2914 9.94371 2.60179e-08 -3.35999 
593 1 6.63531 -19.8112 8.83465 3.02874e-07 -3.35998 
594 1 8.44643 -19.8112 11.0528 7.55198e-07 -3.35994 