ITEM: TIMESTEP
0
ITEM: NUMBER OF ATOMS
4677
ITEM: BOX BOUNDS pp pp ff
0.0 12.222
-122.32869152268785 122.32869152268785
0.0 26.559230598795587
ITEM: ATOMS id type x y z
1 2 8.1480000000 120.5740000000 0.2743240000
2 2 4.0740000000 120.5740000000 0.2743240000
3 2 12.2220000000 120.5740000000 0.2743240000
4 2 10.1850000000 121.5230000000 1.9874700000
5 2 6.1110000000 121.5230000000 1.9874700000
6 2 2.0370000000 121.5230000000 1.9874700000
7 2 10.1850000000 118.8220000000 1.3929700000
8 2 10.1850000000 116.0430000000 0.7611860000
9 2 8.1480000000 117.1390000000 2.4866400000
10 2 6.1110000000 118.8220000000 1.3929700000
11 2 6.1110000000 116.0430000000 0.7611860000
12 2 4.0740000000 117.1390000000 2.4866400000
13 2 2.0370000000 118.8220000000 1.3929700000
14 2 2.0370000000 116.0430000000 0.7611860000
15 2 12.2220000000 117.1390000000 2.4866400000
16 2 8.1480000000 119.9310000000 3.1024400000
17 2 10.1850000000 120.9950000000 4.7910400000
18 2 10.1850000000 118.2510000000 4.2113800000
19 2 8.1480000000 119.3760000000 5.9456700000
20 2 4.0740000000 119.9310000000 3.1024400000
21 2 6.1110000000 120.9950000000 4.7910400000
22 2 2.0370000000 1.4333000000 25.4920000000
23 2 2.0370000000 4.2807000000 26.0898000000
24 2 0.0000000000 3.0165900000 24.3342000000
25 2 6.1110000000 1.4333000000 25.4920000000
26 2 6.1110000000 4.2807000000 26.0898000000
27 2 4.0740000000 3.0165900000 24.3342000000
28 2 10.1850000000 1.4333000000 25.4920000000
29 2 10.1850000000 4.2807000000 26.0898000000
30 2 8.1480000000 3.0165900000 24.3342000000
31 2 12.2220000000 0.0021044600 23.8258000000
32 2 2.0370000000 1.7923700000 22.7044000000
33 2 0.0000000000 1.2817100000 21.0053000000
34 2 4.0740000000 0.0021044600 23.8258000000
35 2 6.1110000000 1.7923700000 22.7044000000
36 2 4.0740000000 1.2817100000 21.0053000000
37 2 8.1480000000 0.0021044600 23.8258000000
38 2 10.1850000000 1.7923700000 22.7044000000
39 2 8.1480000000 1.2817100000 21.0053000000
40 2 2.0370000000 0.0021044600 19.4933000000
41 2 6.1110000000 0.0021044600 19.4933000000
42 2 10.1850000000 0.0021044600 19.4933000000
43 2 0.0000000000 8.7471600000 25.6402000000
44 2 4.0740000000 8.7471600000 25.6402000000
45 2 8.1480000000 8.7471600000 25.6402000000
46 2 0.0000000000 5.9079500000 24.9979000000
47 2 2.0370000000 4.7782200000 23.2923000000
48 2 2.0370000000 7.6351500000 23.9230000000
49 2 0.0000000000 6.6054500000 22.2145000000
50 2 4.0740000000 5.9079500000 24.9979000000
51 2 6.1110000000 4.7782200000 23.2923000000
52 2 6.1110000000 7.6351500000 23.9230000000
53 2 4.0740000000 6.6054500000 22.2145000000
54 2 8.1480000000 5.9079500000 24.9979000000
55 2 10.1850000000 4.7782200000 23.2923000000
56 2 10.1850000000 7.6351500000 23.9230000000
57 2 8.1480000000 6.6054500000 22.2145000000
58 2 12.2220000000 3.8781800000 21.6077000000
59 2 2.0370000000 2.7923700000 19.8492000000
60 2 2.0370000000 5.5267300000 20.4760000000
61 2 0.0000000000 4.3094700000 18.7207000000
62 2 4.0740000000 3.8781800000 21.6077000000
63 2 6.1110000000 2.7923700000 19.8492000000
64 2 6.1110000000 5.5267300000 20.4760000000
65 2 4.0740000000 4.3094700000 18.7207000000
66 2 8.1480000000 3.8781800000 21.6077000000
67 2 10.1850000000 2.7923700000 19.8492000000
68 2 10.1850000000 5.5267300000 20.4760000000
69 2 8.1480000000 4.3094700000 18.7207000000
70 2 0.0000000000 1.4403900000 18.1452000000
71 2 2.0370000000 0.0021044600 16.4760000000
72 2 2.0370000000 3.0354400000 16.9789000000
73 2 0.0000000000 1.8086300000 15.3541000000
74 2 4.0740000000 1.4403900000 18.1452000000
75 2 6.1110000000 0.0021044600 16.4760000000
76 2 6.1110000000 3.0354400000 16.9789000000
77 2 4.0740000000 1.8086300000 15.3541000000
78 2 8.1480000000 1.4403900000 18.1452000000
79 2 10.1850000000 0.0021044600 16.4760000000
80 2 10.1850000000 3.0354400000 16.9789000000
81 2 8.1480000000 1.8086300000 15.3541000000
82 2 2.0370000000 1.2856600000 13.6504000000
83 2 0.0000000000 0.0021044600 12.1313000000
84 2 6.1110000000 1.2856600000 13.6504000000
85 2 4.0740000000 0.0021044600 12.1313000000
86 2 10.1850000000 1.2856600000 13.6504000000
87 2 8.1480000000 0.0021044600 12.1313000000
88 2 0.0000000000 11.5668000000 26.2684000000
89 2 2.0370000000 10.4597000000 24.5489000000
90 2 2.0370000000 13.2736000000 25.1725000000
91 2 0.0000000000 12.1799000000 23.4532000000
92 2 4.0740000000 11.5668000000 26.2684000000
93 2 6.1110000000 10.4597000000 24.5489000000
94 2 6.1110000000 13.2736000000 25.1725000000
95 2 4.0740000000 12.1799000000 23.4532000000
96 2 8.1480000000 11.5668000000 26.2684000000
97 2 10.1850000000 10.4597000000 24.5489000000
98 2 10.1850000000 13.2736000000 25.1725000000
99 2 8.1480000000 12.1799000000 23.4532000000
100 2 0.0000000000 9.3830000000 22.8329000000
101 2 2.0370000000 8.2925300000 21.1039000000
102 2 2.0370000000 11.0808000000 21.7289000000
103 2 0.0000000000 9.9509900000 19.9976000000
104 2 4.0740000000 9.3830000000 22.8329000000
105 2 6.1110000000 8.2925300000 21.1039000000
106 2 6.1110000000 11.0808000000 21.7289000000
107 2 4.0740000000 9.9509900000 19.9976000000
108 2 8.1480000000 9.3830000000 22.8329000000
109 2 10.1850000000 8.2925300000 21.1039000000
110 2 10.1850000000 11.0808000000 21.7289000000
111 2 8.1480000000 9.9509900000 19.9976000000
112 2 0.0000000000 7.1354300000 19.3622000000
113 2 2.0370000000 5.9469400000 17.6258000000
114 2 2.0370000000 8.8028500000 18.2677000000
115 2 0.0000000000 7.6806900000 16.5520000000
116 2 4.0740000000 7.1354300000 19.3622000000
117 2 6.1110000000 5.9469400000 17.6258000000
118 2 6.1110000000 8.8028500000 18.2677000000
119 2 4.0740000000 7.6806900000 16.5520000000
120 2 8.1480000000 7.1354300000 19.3622000000
121 2 10.1850000000 5.9469400000 17.6258000000
122 2 10.1850000000 8.8028500000 18.2677000000
123 2 8.1480000000 7.6806900000 16.5520000000
124 2 0.0000000000 4.8076500000 15.9288000000
125 2 2.0370000000 3.8944700000 14.2502000000
126 2 2.0370000000 6.6394600000 14.8477000000
127 2 0.0000000000 5.5542800000 13.1167000000
128 2 4.0740000000 4.8076500000 15.9288000000
129 2 6.1110000000 3.8944700000 14.2502000000
130 2 6.1110000000 6.6394600000 14.8477000000
131 2 4.0740000000 5.5542800000 13.1167000000
132 2 8.1480000000 4.8076500000 15.9288000000
133 2 10.1850000000 3.8944700000 14.2502000000
134 2 10.1850000000 6.6394600000 14.8477000000
135 2 8.1480000000 5.5542800000 13.1167000000
136 2 0.0000000000 2.8038600000 12.4948000000
137 2 2.0370000000 1.4479700000 10.7836000000
138 2 2.0370000000 4.3353300000 11.3671000000
139 2 0.0000000000 3.0640800000 9.6285500000
140 2 4.0740000000 2.8038600000 12.4948000000
141 2 6.1110000000 1.4479700000 10.7836000000
142 2 6.1110000000 4.3353300000 11.3671000000
143 2 4.0740000000 3.0640800000 9.6285500000
144 2 8.1480000000 2.8038600000 12.4948000000
145 2 10.1850000000 1.4479700000 10.7836000000
146 2 10.1850000000 4.3353300000 11.3671000000
147 2 8.1480000000 3.0640800000 9.6285500000
148 2 0.0000000000 0.0021044600 9.1040200000
149 2 2.0370000000 1.8529000000 7.9934400000
150 2 0.0000000000 1.2917800000 6.2812400000
151 2 4.0740000000 0.0021044600 9.1040200000
152 2 6.1110000000 1.8529000000 7.9934400000
153 2 4.0740000000 1.2917800000 6.2812400000
154 2 8.1480000000 0.0021044600 9.1040200000
155 2 10.1850000000 1.8529000000 7.9934400000
156 2 8.1480000000 1.2917800000 6.2812400000
157 2 2.0370000000 0.0021044600 4.6310100000
158 2 6.1110000000 0.0021044600 4.6310100000
159 2 10.1850000000 0.0021044600 4.6310100000
160 2 2.0370000000 16.0833000000 25.7961000000
161 2 2.0370000000 18.8916000000 26.4198000000
162 2 0.0000000000 17.7911000000 24.6988000000
163 2 6.1110000000 16.0833000000 25.7961000000
164 2 6.1110000000 18.8916000000 26.4198000000
165 2 4.0740000000 17.7911000000 24.6988000000
166 2 10.1850000000 16.0833000000 25.7961000000
167 2 10.1850000000 18.8916000000 26.4198000000
168 2 8.1480000000 17.7911000000 24.6988000000
169 2 0.0000000000 14.9841000000 24.0755000000
170 2 2.0370000000 13.8814000000 22.3527000000
171 2 2.0370000000 16.6877000000 22.9768000000
172 2 0.0000000000 15.5764000000 21.2532000000
173 2 4.0740000000 14.9841000000 24.0755000000
174 2 6.1110000000 13.8814000000 22.3527000000
175 2 6.1110000000 16.6877000000 22.9768000000
176 2 4.0740000000 15.5764000000 21.2532000000
177 2 8.1480000000 14.9841000000 24.0755000000
178 2 10.1850000000 13.8814000000 22.3527000000
179 2 10.1850000000 16.6877000000 22.9768000000
180 2 8.1480000000 15.5764000000 21.2532000000
181 2 12.2220000000 12.7639000000 20.6267000000
182 2 2.0370000000 11.6358000000 18.9011000000
183 2 2.0370000000 14.4589000000 19.5297000000
184 2 0.0000000000 13.3453000000 17.8089000000
185 2 4.0740000000 12.7639000000 20.6267000000
186 2 6.1110000000 11.6358000000 18.9011000000
187 2 6.1110000000 14.4589000000 19.5297000000
188 2 4.0740000000 13.3453000000 17.8089000000
189 2 8.1480000000 12.7639000000 20.6267000000
190 2 10.1850000000 11.6358000000 18.9011000000
191 2 10.1850000000 14.4589000000 19.5297000000
192 2 8.1480000000 13.3453000000 17.8089000000
193 2 0.0000000000 10.5189000000 17.1812000000
194 2 2.0370000000 9.4334800000 15.4658000000
195 2 2.0370000000 12.2445000000 16.0901000000
196 2 0.0000000000 11.1420000000 14.3677000000
197 2 4.0740000000 10.5189000000 17.1812000000
198 2 6.1110000000 9.4334800000 15.4658000000
199 2 6.1110000000 12.2445000000 16.0901000000
200 2 4.0740000000 11.1420000000 14.3677000000
201 2 8.1480000000 10.5189000000 17.1812000000
202 2 10.1850000000 9.4334800000 15.4658000000
203 2 10.1850000000 12.2445000000 16.0901000000
204 2 8.1480000000 11.1420000000 14.3677000000
205 2 0.0000000000 8.3379800000 13.7404000000
206 2 2.0370000000 7.1806900000 12.0053000000
207 2 2.0370000000 10.0137000000 12.6403000000
208 2 12.2220000000 8.8719500000 10.9167000000
209 2 4.0740000000 8.3379800000 13.7404000000
210 2 6.1110000000 7.1806900000 12.0053000000
211 2 6.1110000000 10.0137000000 12.6403000000
212 2 4.0740000000 8.8719500000 10.9167000000
213 2 8.1480000000 8.3379800000 13.7404000000
214 2 10.1850000000 7.1806900000 12.0053000000
215 2 10.1850000000 10.0137000000 12.6403000000
216 2 8.1480000000 8.8719500000 10.9167000000
217 2 0.0000000000 5.9962100000 10.2766000000
218 2 2.0370000000 4.8645600000 8.5839600000
219 2 2.0370000000 7.7609500000 9.2090500000
220 2 0.0000000000 6.7345400000 7.5170100000
221 2 4.0740000000 5.9962100000 10.2766000000
222 2 6.1110000000 4.8645600000 8.5839600000
223 2 6.1110000000 7.7609500000 9.2090500000
224 2 4.0740000000 6.7345400000 7.5170100000
225 2 8.1480000000 5.9962100000 10.2766000000
226 2 10.1850000000 4.8645600000 8.5839600000
227 2 10.1850000000 7.7609500000 9.2090500000
228 2 8.1480000000 6.7345400000 7.5170100000
229 2 0.0000000000 3.9417200000 6.9106900000
230 2 2.0370000000 2.9075300000 5.1582200000
231 2 2.0370000000 5.7164100000 5.8124600000
232 2 0.0000000000 4.6715500000 4.1229300000
233 2 4.0740000000 3.9417200000 6.9106900000
234 2 6.1110000000 2.9075300000 5.1582200000
235 2 6.1110000000 5.7164100000 5.8124600000
236 2 4.0740000000 4.6715500000 4.1229300000
237 2 8.1480000000 3.9417200000 6.9106900000
238 2 10.1850000000 2.9075300000 5.1582200000
239 2 10.1850000000 5.7164100000 5.8124600000
240 2 8.1480000000 4.6715500000 4.1229300000
241 2 12.2220000000 1.7303900000 3.4977100000
242 2 2.0370000000 1.2715300000 1.7889500000
243 2 2.0370000000 3.8323500000 2.4302300000
244 2 12.2220000000 2.7731100000 0.6471720000
245 2 4.0740000000 1.7303900000 3.4977100000
246 2 6.1110000000 1.2715300000 1.7889500000
247 2 6.1110000000 3.8323500000 2.4302300000
248 2 4.0740000000 2.7731100000 0.6471720000
249 2 8.1480000000 1.7303900000 3.4977100000
250 2 10.1850000000 1.2715300000 1.7889500000
251 2 10.1850000000 3.8323500000 2.4302300000
252 2 8.1480000000 2.7731100000 0.6471720000
253 2 0.0000000000 0.0021044600 0.2745690000
254 2 4.0740000000 0.0021044600 0.2745690000
255 2 8.1480000000 0.0021044600 0.2745690000
256 2 0.0000000000 23.4085000000 25.9465000000
257 2 4.0740000000 23.4085000000 25.9465000000
258 2 8.1480000000 23.4085000000 25.9465000000
259 2 0.0000000000 20.5995000000 25.3226000000
260 2 2.0370000000 19.4965000000 23.6011000000
261 2 2.0370000000 22.3067000000 24.2255000000
262 2 12.2220000000 21.2016000000 22.5041000000
263 2 4.0740000000 20.5995000000 25.3226000000
264 2 6.1110000000 19.4965000000 23.6011000000
265 2 6.1110000000 22.3067000000 24.2255000000
266 2 4.0740000000 21.2016000000 22.5041000000
267 2 8.1480000000 20.5995000000 25.3226000000
268 2 10.1850000000 19.4965000000 23.6011000000
269 2 10.1850000000 22.3067000000 24.2255000000
270 2 8.1480000000 21.2016000000 22.5041000000
271 2 0.0000000000 18.3890000000 21.8788000000
272 2 2.0370000000 17.2774000000 20.1565000000
273 2 2.0370000000 20.0938000000 20.7825000000
274 2 12.2220000000 18.9857000000 19.0617000000
275 2 4.0740000000 18.3890000000 21.8788000000
276 2 6.1110000000 17.2774000000 20.1565000000
277 2 6.1110000000 20.0938000000 20.7825000000
278 2 4.0740000000 18.9857000000 19.0617000000
279 2 8.1480000000 18.3890000000 21.8788000000
280 2 10.1850000000 17.2774000000 20.1565000000
281 2 10.1850000000 20.0938000000 20.7825000000
282 2 8.1480000000 18.9857000000 19.0617000000
283 2 12.2220000000 16.1667000000 18.4355000000
284 2 2.0370000000 15.0613000000 16.7157000000
285 2 2.0370000000 17.8797000000 17.3416000000
286 2 0.0000000000 16.7746000000 15.6215000000
287 2 4.0740000000 16.1667000000 18.4355000000
288 2 6.1110000000 15.0613000000 16.7157000000
289 2 6.1110000000 17.8797000000 17.3416000000
290 2 4.0740000000 16.7746000000 15.6215000000
291 2 8.1480000000 16.1667000000 18.4355000000
292 2 10.1850000000 15.0613000000 16.7157000000
293 2 10.1850000000 17.8797000000 17.3416000000
294 2 8.1480000000 16.7746000000 15.6215000000
295 2 0.0000000000 13.9562000000 14.9949000000
296 2 2.0370000000 12.8414000000 13.2721000000
297 2 2.0370000000 15.6666000000 13.9012000000
298 2 0.0000000000 14.5583000000 12.1823000000
299 2 4.0740000000 13.9562000000 14.9949000000
300 2 6.1110000000 12.8414000000 13.2721000000
301 2 6.1110000000 15.6666000000 13.9012000000
302 2 4.0740000000 14.5583000000 12.1823000000
303 2 8.1480000000 13.9562000000 14.9949000000
304 2 10.1850000000 12.8414000000 13.2721000000
305 2 10.1850000000 15.6666000000 13.9012000000
306 2 8.1480000000 14.5583000000 12.1823000000
307 2 0.0000000000 11.7217000000 11.5514000000
308 2 2.0370000000 10.6199000000 9.8388800000
309 2 2.0370000000 13.4616000000 10.4682000000
310 2 0.0000000000 12.3901000000 8.7600000000
311 2 4.0740000000 11.7217000000 11.5514000000
312 2 6.1110000000 10.6199000000 9.8388800000
313 2 6.1110000000 13.4616000000 10.4682000000
314 2 4.0740000000 12.3901000000 8.7600000000
315 2 8.1480000000 11.7217000000 11.5514000000
316 2 10.1850000000 10.6199000000 9.8388800000
317 2 10.1850000000 13.4616000000 10.4682000000
318 2 8.1480000000 12.3901000000 8.7600000000
319 2 0.0000000000 9.5609100000 8.1360500000
320 2 2.0370000000 8.5284400000 6.4342500000
321 2 2.0370000000 11.3418000000 7.0548300000
322 2 0.0000000000 10.3045000000 5.3513200000
323 2 4.0740000000 9.5609100000 8.1360500000
324 2 6.1110000000 8.5284400000 6.4342500000
325 2 6.1110000000 11.3418000000 7.0548300000
326 2 4.0740000000 10.3045000000 5.3513200000
327 2 8.1480000000 9.5609100000 8.1360500000
328 2 10.1850000000 8.5284400000 6.4342500000
329 2 10.1850000000 11.3418000000 7.0548300000
330 2 8.1480000000 10.3045000000 5.3513200000
331 2 12.2220000000 7.4995300000 4.7375700000
332 2 2.0370000000 6.5275200000 3.0403100000
333 2 2.0370000000 9.2816500000 3.6459500000
334 2 0.0000000000 8.2230900000 1.9224100000
335 2 4.0740000000 7.4995300000 4.7375700000
336 2 6.1110000000 6.5275200000 3.0403100000
337 2 6.1110000000 9.2816500000 3.6459500000
338 2 4.0740000000 8.2230900000 1.9224100000
339 2 8.1480000000 7.4995300000 4.7375700000
340 2 10.1850000000 6.5275200000 3.0403100000
341 2 10.1850000000 9.2816500000 3.6459500000
342 2 8.1480000000 8.2230900000 1.9224100000
343 2 0.0000000000 5.4783900000 1.3004200000
344 2 2.0370000000 7.0835300000 0.1810180000
345 2 4.0740000000 5.4783900000 1.3004200000
346 2 6.1110000000 7.0835300000 0.1810180000
347 2 8.1480000000 5.4783900000 1.3004200000
348 2 10.1850000000 7.0835300000 0.1810180000
349 2 2.0370000000 25.1175000000 24.8499000000
350 2 2.0370000000 27.9286000000 25.4742000000
351 2 0.0000000000 26.8270000000 23.7538000000
352 2 6.1110000000 25.1175000000 24.8499000000
353 2 6.1110000000 27.9286000000 25.4742000000
354 2 4.0740000000 26.8270000000 23.7538000000
355 2 10.1850000000 25.1175000000 24.8499000000
356 2 10.1850000000 27.9286000000 25.4742000000
357 2 8.1480000000 26.8270000000 23.7538000000
358 2 0.0000000000 24.0143000000 23.1290000000
359 2 2.0370000000 22.9091000000 21.4081000000
360 2 2.0370000000 25.7238000000 22.0333000000
361 2 0.0000000000 24.6198000000 20.3131000000
362 2 4.0740000000 24.0143000000 23.1290000000
363 2 6.1110000000 22.9091000000 21.4081000000
364 2 6.1110000000 25.7238000000 22.0333000000
365 2 4.0740000000 24.6198000000 20.3131000000
366 2 8.1480000000 24.0143000000 23.1290000000
367 2 10.1850000000 22.9091000000 21.4081000000
368 2 10.1850000000 25.7238000000 22.0333000000
369 2 8.1480000000 24.6198000000 20.3131000000
370 2 12.2220000000 21.8032000000 19.6875000000
371 2 2.0370000000 20.6982000000 17.9675000000
372 2 2.0370000000 23.5162000000 18.5933000000
373 2 0.0000000000 22.4135000000 16.8740000000
374 2 4.0740000000 21.8032000000 19.6875000000
375 2 6.1110000000 20.6982000000 17.9675000000
376 2 6.1110000000 23.5162000000 18.5933000000
377 2 4.0740000000 22.4135000000 16.8740000000
378 2 8.1480000000 21.8032000000 19.6875000000
379 2 10.1850000000 20.6982000000 17.9675000000
380 2 10.1850000000 23.5162000000 18.5933000000
381 2 8.1480000000 22.4135000000 16.8740000000
382 2 12.2220000000 19.5942000000 16.2479000000
383 2 2.0370000000 18.4901000000 14.5286000000
384 2 2.0370000000 21.3120000000 15.1552000000
385 2 0.0000000000 20.2130000000 13.4377000000
386 2 4.0740000000 19.5942000000 16.2479000000
387 2 6.1110000000 18.4901000000 14.5286000000
388 2 6.1110000000 21.3120000000 15.1552000000
389 2 4.0740000000 20.2130000000 13.4377000000
390 2 8.1480000000 19.5942000000 16.2479000000
391 2 10.1850000000 18.4901000000 14.5286000000
392 2 10.1850000000 21.3120000000 15.1552000000
393 2 8.1480000000 20.2130000000 13.4377000000
394 2 12.2220000000 17.3878000000 12.8107000000
395 2 2.0370000000 16.2939000000 11.0959000000
396 2 2.0370000000 19.1205000000 11.7223000000
397 2 0.0000000000 18.0390000000 10.0095000000
398 2 4.0740000000 17.3878000000 12.8107000000
399 2 6.1110000000 16.2939000000 11.0959000000
400 2 6.1110000000 19.1205000000 11.7223000000
401 2 4.0740000000 18.0390000000 10.0095000000
402 2 8.1480000000 17.3878000000 12.8107000000
403 2 10.1850000000 16.2939000000 11.0959000000
404 2 10.1850000000 19.1205000000 11.7223000000
405 2 8.1480000000 18.0390000000 10.0095000000
406 2 0.0000000000 15.2162000000 9.3848700000
407 2 2.0370000000 14.1558000000 7.6765000000
408 2 2.0370000000 16.9700000000 8.2987500000
409 2 12.2220000000 15.9095000000 6.5882800000
410 2 4.0740000000 15.2162000000 9.3848700000
411 2 6.1110000000 14.1558000000 7.6765000000
412 2 6.1110000000 16.9700000000 8.2987500000
413 2 4.0740000000 15.9095000000 6.5882800000
414 2 8.1480000000 15.2162000000 9.3848700000
415 2 10.1850000000 14.1558000000 7.6765000000
416 2 10.1850000000 16.9700000000 8.2987500000
417 2 8.1480000000 15.9095000000 6.5882800000
418 2 0.0000000000 13.1061000000 5.9687200000
419 2 2.0370000000 12.0599000000 4.2585200000
420 2 2.0370000000 14.8502000000 4.8757200000
421 2 0.0000000000 13.7785000000 3.1577100000
422 2 4.0740000000 13.1061000000 5.9687200000
423 2 6.1110000000 12.0599000000 4.2585200000
424 2 6.1110000000 14.8502000000 4.8757200000
425 2 4.0740000000 13.7785000000 3.1577100000
426 2 8.1480000000 13.1061000000 5.9687200000
427 2 10.1850000000 12.0599000000 4.2585200000
428 2 10.1850000000 14.8502000000 4.8757200000
429 2 8.1480000000 13.7785000000 3.1577100000
430 2 0.0000000000 10.9936000000 2.5390900000
431 2 2.0370000000 9.8829300000 0.8101170000
432 2 2.0370000000 12.6815000000 1.4338700000
433 2 4.0740000000 10.9936000000 2.5390900000
434 2 6.1110000000 9.8829300000 0.8101170000
435 2 6.1110000000 12.6815000000 1.4338700000
436 2 8.1480000000 10.9936000000 2.5390900000
437 2 10.1850000000 9.8829300000 0.8101170000
438 2 10.1850000000 12.6815000000 1.4338700000
439 2 2.0370000000 30.7401000000 26.0985000000
440 2 0.0000000000 32.4525000000 25.0030000000
441 2 6.1110000000 30.7401000000 26.0985000000
442 2 4.0740000000 32.4525000000 25.0030000000
443 2 10.1850000000 30.7401000000 26.0985000000
444 2 8.1480000000 32.4525000000 25.0030000000
445 2 0.0000000000 29.6397000000 24.3785000000
446 2 2.0370000000 28.5381000000 22.6584000000
447 2 2.0370000000 31.3521000000 23.2832000000
448 2 0.0000000000 30.2512000000 21.5636000000
449 2 4.0740000000 29.6397000000 24.3785000000
450 2 6.1110000000 28.5381000000 22.6584000000
451 2 6.1110000000 31.3521000000 23.2832000000
452 2 4.0740000000 30.2512000000 21.5636000000
453 2 8.1480000000 29.6397000000 24.3785000000
454 2 10.1850000000 28.5381000000 22.6584000000
455 2 10.1850000000 31.3521000000 23.2832000000
456 2 8.1480000000 30.2512000000 21.5636000000
457 2 0.0000000000 27.4358000000 20.9384000000
458 2 2.0370000000 26.3336000000 19.2188000000
459 2 2.0370000000 29.1503000000 19.8442000000
460 2 0.0000000000 28.0503000000 18.1253000000
461 2 4.0740000000 27.4358000000 20.9384000000
462 2 6.1110000000 26.3336000000 19.2188000000
463 2 6.1110000000 29.1503000000 19.8442000000
464 2 4.0740000000 28.0503000000 18.1253000000
465 2 8.1480000000 27.4358000000 20.9384000000
466 2 10.1850000000 26.3336000000 19.2188000000
467 2 10.1850000000 29.1503000000 19.8442000000
468 2 8.1480000000 28.0503000000 18.1253000000
469 2 0.0000000000 25.2323000000 17.4997000000
470 2 2.0370000000 24.1325000000 15.7813000000
471 2 2.0370000000 26.9517000000 16.4070000000
472 2 12.2220000000 25.8557000000 14.6895000000
473 2 4.0740000000 25.2323000000 17.4997000000
474 2 6.1110000000 24.1325000000 15.7813000000
475 2 6.1110000000 26.9517000000 16.4070000000
476 2 4.0740000000 25.8557000000 14.6895000000
477 2 8.1480000000 25.2323000000 17.4997000000
478 2 10.1850000000 24.1325000000 15.7813000000
479 2 10.1850000000 26.9517000000 16.4070000000
480 2 8.1480000000 25.8557000000 14.6895000000
481 2 0.0000000000 23.0354000000 14.0639000000
482 2 2.0370000000 21.9434000000 12.3480000000
483 2 2.0370000000 24.7638000000 12.9732000000
484 2 12.2220000000 23.6778000000 11.2583000000
485 2 4.0740000000 23.0354000000 14.0639000000
486 2 6.1110000000 21.9434000000 12.3480000000
487 2 6.1110000000 24.7638000000 12.9732000000
488 2 4.0740000000 23.6778000000 11.2583000000
489 2 8.1480000000 23.0354000000 14.0639000000
490 2 10.1850000000 21.9434000000 12.3480000000
491 2 10.1850000000 24.7638000000 12.9732000000
492 2 8.1480000000 23.6778000000 11.2583000000
493 2 0.0000000000 20.8593000000 10.6340000000
494 2 2.0370000000 19.7841000000 8.9213900000
495 2 2.0370000000 22.5982000000 9.5443800000
496 2 0.0000000000 21.5234000000 7.8306700000
497 2 4.0740000000 20.8593000000 10.6340000000
498 2 6.1110000000 19.7841000000 8.9213900000
499 2 6.1110000000 22.5982000000 9.5443800000
500 2 4.0740000000 21.5234000000 7.8306700000
501 2 8.1480000000 20.8593000000 10.6340000000
502 2 10.1850000000 19.7841000000 8.9213900000
503 2 10.1850000000 22.5982000000 9.5443800000
504 2 8.1480000000 21.5234000000 7.8306700000
505 2 0.0000000000 18.7154000000 7.2090500000
506 2 2.0370000000 17.6476000000 5.4951900000
507 2 2.0370000000 20.4495000000 6.1159300000
508 2 0.0000000000 19.3707000000 4.3988900000
509 2 4.0740000000 18.7154000000 7.2090500000
510 2 6.1110000000 17.6476000000 5.4951900000
511 2 6.1110000000 20.4495000000 6.1159300000
512 2 4.0740000000 19.3707000000 4.3988900000
513 2 8.1480000000 18.7154000000 7.2090500000
514 2 10.1850000000 17.6476000000 5.4951900000
515 2 10.1850000000 20.4495000000 6.1159300000
516 2 8.1480000000 19.3707000000 4.3988900000
517 2 0.0000000000 16.5719000000 3.7778600000
518 2 2.0370000000 15.4810000000 2.0566700000
519 2 2.0370000000 18.2822000000 2.6791800000
520 2 0.0000000000 17.1844000000 0.9579390000
521 2 4.0740000000 16.5719000000 3.7778600000
522 2 6.1110000000 15.4810000000 2.0566700000
523 2 6.1110000000 18.2822000000 2.6791800000
524 2 4.0740000000 17.1844000000 0.9579390000
525 2 8.1480000000 16.5719000000 3.7778600000
526 2 10.1850000000 15.4810000000 2.0566700000
527 2 10.1850000000 18.2822000000 2.6791800000
528 2 8.1480000000 17.1844000000 0.9579390000
529 2 0.0000000000 14.3774000000 0.3340740000
530 2 4.0740000000 14.3774000000 0.3340740000
531 2 8.1480000000 14.3774000000 0.3340740000
532 2 0.0000000000 38.0781000000 26.2519000000
533 2 4.0740000000 38.0781000000 26.2519000000
534 2 8.1480000000 38.0781000000 26.2519000000
535 2 12.2220000000 35.2653000000 25.6275000000
536 2 2.0370000000 34.1660000000 23.9079000000
537 2 2.0370000000 36.9797000000 24.5326000000
538 2 0.0000000000 35.8809000000 22.8133000000
539 2 4.0740000000 35.2653000000 25.6275000000
540 2 6.1110000000 34.1660000000 23.9079000000
541 2 6.1110000000 36.9797000000 24.5326000000
542 2 4.0740000000 35.8809000000 22.8133000000
543 2 8.1480000000 35.2653000000 25.6275000000
544 2 10.1850000000 34.1660000000 23.9079000000
545 2 10.1850000000 36.9797000000 24.5326000000
546 2 8.1480000000 35.8809000000 22.8133000000
547 2 0.0000000000 33.0662000000 22.1885000000
548 2 2.0370000000 31.9665000000 20.4693000000
549 2 2.0370000000 34.7822000000 21.0943000000
550 2 0.0000000000 33.6840000000 19.3756000000
551 2 4.0740000000 33.0662000000 22.1885000000
552 2 6.1110000000 31.9665000000 20.4693000000
553 2 6.1110000000 34.7822000000 21.0943000000
554 2 4.0740000000 33.6840000000 19.3756000000
555 2 8.1480000000 33.0662000000 22.1885000000
556 2 10.1850000000 31.9665000000 20.4693000000
557 2 10.1850000000 34.7822000000 21.0943000000
558 2 8.1480000000 33.6840000000 19.3756000000
559 2 0.0000000000 30.8675000000 18.7505000000
560 2 2.0370000000 29.7698000000 17.0323000000
561 2 2.0370000000 32.5871000000 17.6574000000
562 2 0.0000000000 31.4921000000 15.9398000000
563 2 4.0740000000 30.8675000000 18.7505000000
564 2 6.1110000000 29.7698000000 17.0323000000
565 2 6.1110000000 32.5871000000 17.6574000000
566 2 4.0740000000 31.4921000000 15.9398000000
567 2 8.1480000000 30.8675000000 18.7505000000
568 2 10.1850000000 29.7698000000 17.0323000000
569 2 10.1850000000 32.5871000000 17.6574000000
570 2 8.1480000000 31.4921000000 15.9398000000
571 2 12.2220000000 28.6745000000 15.3148000000
572 2 2.0370000000 27.5824000000 13.5982000000
573 2 2.0370000000 30.3999000000 14.2229000000
574 2 0.0000000000 29.3110000000 12.5067000000
575 2 4.0740000000 28.6745000000 15.3148000000
576 2 6.1110000000 27.5824000000 13.5982000000
577 2 6.1110000000 30.3999000000 14.2229000000
578 2 4.0740000000 29.3110000000 12.5067000000
579 2 8.1480000000 28.6745000000 15.3148000000
580 2 10.1850000000 27.5824000000 13.5982000000
581 2 10.1850000000 30.3999000000 14.2229000000
582 2 8.1480000000 29.3110000000 12.5067000000
583 2 0.0000000000 26.4949000000 11.8825000000
584 2 2.0370000000 25.4121000000 10.1676000000
585 2 2.0370000000 28.2258000000 10.7911000000
586 2 0.0000000000 27.1434000000 9.0756400000
587 2 4.0740000000 26.4949000000 11.8825000000
588 2 6.1110000000 25.4121000000 10.1676000000
589 2 6.1110000000 28.2258000000 10.7911000000
590 2 4.0740000000 27.1434000000 9.0756400000
591 2 8.1480000000 26.4949000000 11.8825000000
592 2 10.1850000000 25.4121000000 10.1676000000
593 2 10.1850000000 28.2258000000 10.7911000000
594 2 8.1480000000 27.1434000000 9.0756400000
595 2 12.2220000000 24.3329000000 8.4529200000
596 2 2.0370000000 23.2545000000 6.7375000000
597 2 2.0370000000 26.0617000000 7.3596800000
598 2 12.2220000000 24.9781000000 5.6426300000
599 2 4.0740000000 24.3329000000 8.4529200000
600 2 6.1110000000 23.2545000000 6.7375000000
601 2 6.1110000000 26.0617000000 7.3596800000
602 2 4.0740000000 24.9781000000 5.6426300000
603 2 8.1480000000 24.3329000000 8.4529200000
604 2 10.1850000000 23.2545000000 6.7375000000
605 2 10.1850000000 26.0617000000 7.3596800000
606 2 8.1480000000 24.9781000000 5.6426300000
607 2 0.0000000000 22.1731000000 5.0205200000
608 2 2.0370000000 21.0853000000 3.3016300000
609 2 2.0370000000 23.8901000000 3.9241900000
610 2 0.0000000000 22.7969000000 2.2045300000
611 2 4.0740000000 22.1731000000 5.0205200000
612 2 6.1110000000 21.0853000000 3.3016300000
613 2 6.1110000000 23.8901000000 3.9241900000
614 2 4.0740000000 22.7969000000 2.2045300000
615 2 8.1480000000 22.1731000000 5.0205200000
616 2 10.1850000000 21.0853000000 3.3016300000
617 2 10.1850000000 23.8901000000 3.9241900000
618 2 8.1480000000 22.7969000000 2.2045300000
619 2 12.2220000000 19.9905000000 1.5813300000
620 2 2.0370000000 21.6995000000 0.4841670000
621 2 4.0740000000 19.9905000000 1.5813300000
622 2 6.1110000000 21.6995000000 0.4841670000
623 2 8.1480000000 19.9905000000 1.5813300000
624 2 10.1850000000 21.6995000000 0.4841670000
625 2 2.0370000000 39.7933000000 25.1571000000
626 2 2.0370000000 42.6067000000 25.7815000000
627 2 12.2220000000 41.5094000000 24.0626000000
628 2 6.1110000000 39.7933000000 25.1571000000
629 2 6.1110000000 42.6067000000 25.7815000000
630 2 4.0740000000 41.5094000000 24.0626000000
631 2 10.1850000000 39.7933000000 25.1571000000
632 2 10.1850000000 42.6067000000 25.7815000000
633 2 8.1480000000 41.5094000000 24.0626000000
634 2 0.0000000000 38.6953000000 23.4380000000
635 2 2.0370000000 37.5974000000 21.7191000000
636 2 2.0370000000 40.4122000000 22.3438000000
637 2 12.2220000000 39.3154000000 20.6253000000
638 2 4.0740000000 38.6953000000 23.4380000000
639 2 6.1110000000 37.5974000000 21.7191000000
640 2 6.1110000000 40.4122000000 22.3438000000
641 2 4.0740000000 39.3154000000 20.6253000000
642 2 8.1480000000 38.6953000000 23.4380000000