ITEM: TIMESTEP
0
ITEM: NUMBER OF ATOMS
4203
ITEM: BOX BOUNDS xy xz yz pp ff pp
-2.0369999999999999e+00 1.2222000000000000e+01 0.0000000000000000e+00
-1.2234495637846365e+02 1.2234495637846365e+02 -2.0369999999999999e+00
0.0000000000000000e+00 2.3842473718135878e+01 0.0000000000000000e+00
ITEM: ATOMS id type x y z c_csym c_eng 
1 1 4.20934e-11 -121.423 23.2983 35.1204 -2.76666 
2 1 2.037 -119.656 22.5173 7.44864 -3.32237 
3 1 4.24902e-11 -120.364 20.6193 13.9159 -3.14084 
4 1 4.074 -121.423 23.2983 35.1204 -2.76666 
5 1 6.111 -119.656 22.5173 7.44864 -3.32237 
6 1 4.074 -120.364 20.6193 13.9159 -3.14084 
7 1 8.148 -121.423 23.2983 35.1204 -2.76666 
8 1 10.185 -119.656 22.5173 7.44864 -3.32237 
9 1 8.148 -120.364 20.6193 13.9159 -3.14084 
10 1 2.037 -120.961 18.7409 22.4396 -3.00912 
11 1 4.2113e-11 -121.572 16.8678 34.9055 -2.76627 
12 1 6.111 -120.961 18.7409 22.4396 -3.00912 
13 1 4.074 -121.572 16.8678 34.9055 -2.76627 
14 1 10.185 -120.961 18.7409 22.4396 -3.00912 
15 1 8.148 -121.572 16.8678 34.9055 -2.76627 
16 1 2.037 -117.041 23.7544 0.00674656 -3.44527 
17 1 3.8167e-11 -115.126 23.0651 0.00317313 -3.44648 
18 1 6.111 -117.041 23.7544 0.00674656 -3.44527 
19 1 4.074 -115.126 23.0651 0.00317313 -3.44648 
20 1 10.185 -117.041 23.7544 0.00674656 -3.44527 
21 1 8.148 -115.126 23.0651 0.00317313 -3.44648 
22 1 4.08238e-11 -117.754 21.8399 0.025862 -3.44518 
23 1 2.037 -118.402 19.9375 0.0109774 -3.41694 
24 1 2.037 -115.809 21.1598 0.00257968 -3.44357 
25 1 3.98537e-11 -116.487 19.2485 0.0109992 -3.44136 
26 1 4.074 -117.754 21.8399 0.025862 -3.44518 
27 1 6.111 -118.402 19.9375 0.0109774 -3.41694 
28 1 6.111 -115.809 21.1598 0.00257968 -3.44357 
29 1 4.074 -116.487 19.2485 0.0109992 -3.44136 
30 1 8.148 -117.754 21.8399 0.025862 -3.44518 
31 1 10.185 -118.402 19.9375 0.0109774 -3.41694 
32 1 10.185 -115.809 21.1598 0.00257968 -3.44357 
33 1 8.148 -116.487 19.2485 0.0109992 -3.44136 
34 1 4.15368e-11 -119.064 18.0337 0.0552731 -3.40317 
35 1 2.037 -119.813 16.0819 7.38942 -3.32154 
36 1 2.037 -117.204 17.3194 0.00864684 -3.4464 
37 1 4.09666e-11 -117.919 15.4055 0.0295873 -3.44589 
38 1 4.074 -119.064 18.0337 0.0552731 -3.40317 
39 1 6.111 -119.813 16.0819 7.38942 -3.32154 
40 1 6.111 -117.204 17.3194 0.00864684 -3.4464 
41 1 4.074 -117.919 15.4055 0.0295873 -3.44589 
42 1 8.148 -119.064 18.0337 0.0552731 -3.40317 
43 1 10.185 -119.813 16.0819 7.38942 -3.32154 
44 1 10.185 -117.204 17.3194 0.00864684 -3.4464 
45 1 8.148 -117.919 15.4055 0.0295873 -3.44589 
46 1 4.27394e-11 -120.528 14.1837 13.8262 -3.14052 
47 1 2.037 -121.127 12.3053 22.4859 -3.00893 
48 1 2.037 -118.568 13.5004 0.0101825 -3.41683 
49 1 4.21018e-11 -119.231 11.597 0.0538668 -3.40307 
50 1 4.074 -120.528 14.1837 13.8262 -3.14052 
51 1 6.111 -121.127 12.3053 22.4859 -3.00893 
52 1 6.111 -118.568 13.5004 0.0101825 -3.41683 
53 1 4.074 -119.231 11.597 0.0538668 -3.40307 
54 1 8.148 -120.528 14.1837 13.8262 -3.14052 
55 1 10.185 -121.127 12.3053 22.4859 -3.00893 
56 1 10.185 -118.568 13.5004 0.0101825 -3.41683 
57 1 8.148 -119.231 11.597 0.0538668 -3.40307 
58 1 4.16968e-11 -121.739 10.4326 34.9449 -2.76619 
59 1 2.037 -119.98 9.64597 7.37125 -3.32176 
60 1 4.32275e-11 -120.694 7.74909 13.8265 -3.14083 
61 1 4.074 -121.739 10.4326 34.9449 -2.76619 
62 1 6.111 -119.98 9.64597 7.37125 -3.32176 
63 1 4.074 -120.694 7.74909 13.8265 -3.14083 
64 1 8.148 -121.739 10.4326 34.9449 -2.76619 
65 1 10.185 -119.98 9.64597 7.37125 -3.32176 
66 1 8.148 -120.694 7.74909 13.8265 -3.14083 
67 1 2.037 -121.293 5.87403 22.4911 -3.00896 
68 1 4.26659e-11 -121.906 4.00569 35.2467 -2.76644 
69 1 6.111 -121.293 5.87403 22.4911 -3.00896 
70 1 4.074 -121.906 4.00569 35.2467 -2.76644 
71 1 10.185 -121.293 5.87403 22.4911 -3.00896 
72 1 8.148 -121.906 4.00569 35.2467 -2.76644 
73 1 2.037 -112.506 0.442377 0.000596007 -3.4447 
74 1 2.037 -113.198 22.3742 0.000231753 -3.4437 
75 1 2.037 -110.586 23.5913 3.64229e-05 -3.44396 
76 1 3.33436e-11 -111.278 21.6787 0.000205185 -3.44349 
77 1 6.111 -112.506 0.442377 0.000596007 -3.4447 
78 1 6.111 -113.198 22.3742 0.000231753 -3.4437 
79 1 6.111 -110.586 23.5913 3.64229e-05 -3.44396 
80 1 4.074 -111.278 21.6787 0.000205185 -3.44349 
81 1 10.185 -112.506 0.442377 0.000596007 -3.4447 
82 1 10.185 -113.198 22.3742 0.000231753 -3.4437 
83 1 10.185 -110.586 23.5913 3.64229e-05 -3.44396 
84 1 8.148 -111.278 21.6787 0.000205185 -3.44349 
85 1 3.66336e-11 -113.886 20.463 0.00155515 -3.44278 
86 1 2.037 -114.588 18.5452 0.000689427 -3.44524 
87 1 2.037 -111.975 19.764 6.18953e-05 -3.4441 
88 1 3.4315e-11 -112.674 17.8498 0.000434877 -3.44493 
89 1 4.074 -113.886 20.463 0.00155515 -3.44278 
90 1 6.111 -114.588 18.5452 0.000689427 -3.44524 
91 1 6.111 -111.975 19.764 6.18953e-05 -3.4441 
92 1 4.074 -112.674 17.8498 0.000434877 -3.44493 
93 1 8.148 -113.886 20.463 0.00155515 -3.44278 
94 1 10.185 -114.588 18.5452 0.000689427 -3.44524 
95 1 10.185 -111.975 19.764 6.18953e-05 -3.4441 
96 1 8.148 -112.674 17.8498 0.000434877 -3.44493 
97 1 3.76166e-11 -115.291 16.63 0.00337333 -3.44693 
98 1 2.037 -115.976 14.7235 0.00229438 -3.44377 
99 1 2.037 -113.366 15.9386 0.000188167 -3.44388 
100 1 3.62286e-11 -114.054 14.0266 0.00143341 -3.44281 
101 1 4.074 -115.291 16.63 0.00337333 -3.44693 
102 1 6.111 -115.976 14.7235 0.00229438 -3.44377 
103 1 6.111 -113.366 15.9386 0.000188167 -3.44388 
104 1 4.074 -114.054 14.0266 0.00143341 -3.44281 
105 1 8.148 -115.291 16.63 0.00337333 -3.44693 
106 1 10.185 -115.976 14.7235 0.00229438 -3.44377 
107 1 10.185 -113.366 15.9386 0.000188167 -3.44388 
108 1 8.148 -114.054 14.0266 0.00143341 -3.44281 
109 1 3.89855e-11 -116.654 12.812 0.0105078 -3.44141 
110 1 2.037 -117.371 10.8824 0.00880997 -3.44638 
111 1 2.037 -114.755 12.1085 0.000706726 -3.44529 
112 1 3.76077e-11 -115.458 10.1932 0.00340869 -3.44698 
113 1 4.074 -116.654 12.812 0.0105078 -3.44141 
114 1 6.111 -117.371 10.8824 0.00880997 -3.44638 
115 1 6.111 -114.755 12.1085 0.000706726 -3.44529 
116 1 4.074 -115.458 10.1932 0.00340869 -3.44698 
117 1 8.148 -116.654 12.812 0.0105078 -3.44141 
118 1 10.185 -117.371 10.8824 0.00880997 -3.44638 
119 1 10.185 -114.755 12.1085 0.000706726 -3.44529 
120 1 8.148 -115.458 10.1932 0.00340869 -3.44698 
121 1 4.08261e-11 -118.085 8.96903 0.0298273 -3.44592 
122 1 2.037 -118.733 7.06473 0.0102382 -3.41712 
123 1 2.037 -116.142 8.28673 0.00241046 -3.44382 
124 1 4.06261e-11 -116.819 6.37576 0.0114118 -3.4415 
125 1 4.074 -118.085 8.96903 0.0298273 -3.44592 
126 1 6.111 -118.733 7.06473 0.0102382 -3.41712 
127 1 6.111 -116.142 8.28673 0.00241046 -3.44382 
128 1 4.074 -116.819 6.37576 0.0114118 -3.4415 
129 1 8.148 -118.085 8.96903 0.0298273 -3.44592 
130 1 10.185 -118.733 7.06473 0.0102382 -3.41712 
131 1 10.185 -116.142 8.28673 0.00241046 -3.44382 
132 1 8.148 -116.819 6.37576 0.0114118 -3.4415 
133 1 4.15439e-11 -119.395 5.16245 0.0517383 -3.40446 
134 1 2.037 -120.141 3.21706 7.22347 -3.32293 
135 1 2.037 -117.534 4.44726 0.00554741 -3.44598 
136 1 4.16225e-11 -118.246 2.53369 0.0109106 -3.44292 
137 1 4.074 -119.395 5.16245 0.0517383 -3.40446 
138 1 6.111 -120.141 3.21706 7.22347 -3.32293 
139 1 6.111 -117.534 4.44726 0.00554741 -3.44598 
140 1 4.074 -118.246 2.53369 0.0109106 -3.44292 
141 1 8.148 -119.395 5.16245 0.0517383 -3.40446 
142 1 10.185 -120.141 3.21706 7.22347 -3.32293 
143 1 10.185 -117.534 4.44726 0.00554741 -3.44598 
144 1 8.148 -118.246 2.53369 0.0109106 -3.44292 
145 1 4.27435e-11 -120.837 1.34107 15.0226 -3.11374 
146 1 2.037 -118.91 0.616294 0.0368561 -3.40758 
147 1 4.074 -120.837 1.34107 15.0226 -3.11374 
148 1 6.111 -118.91 0.616294 0.0368561 -3.40758 
149 1 8.148 -120.837 1.34107 15.0226 -3.11374 
150 1 10.185 -118.91 0.616294 0.0368561 -3.40758 
151 1 2.037 -106.056 0.271062 2.1545e-06 -3.44398 
152 1 6.111 -106.056 0.271062 2.1545e-06 -3.44398 
153 1 10.185 -106.056 0.271062 2.1545e-06 -3.44398 
154 1 3.02405e-11 -108.668 22.8959 2.37534e-05 -3.44385 
155 1 2.037 -109.363 20.9819 7.90065e-06 -3.44402 
156 1 2.037 -106.752 22.1997 1.20314e-06 -3.44402 
157 1 2.94218e-11 -107.448 20.2859 4.65315e-06 -3.44416 
158 1 4.074 -108.668 22.8959 2.37534e-05 -3.44385 
159 1 6.111 -109.363 20.9819 7.90065e-06 -3.44402 
160 1 6.111 -106.752 22.1997 1.20314e-06 -3.44402 
161 1 4.074 -107.448 20.2859 4.65315e-06 -3.44416 
162 1 8.148 -108.668 22.8959 2.37534e-05 -3.44385 
163 1 10.185 -109.363 20.9819 7.90065e-06 -3.44402 
164 1 10.185 -106.752 22.1997 1.20314e-06 -3.44402 
165 1 8.148 -107.448 20.2859 4.65315e-06 -3.44416 
166 1 3.08364e-11 -110.06 19.0679 4.98582e-05 -3.44435 
167 1 2.037 -110.754 17.1552 2.40114e-05 -3.44404 
168 1 2.037 -108.143 18.3725 3.80613e-06 -3.44408 
169 1 2.97649e-11 -108.837 16.4592 2.6693e-05 -3.44388 
170 1 4.074 -110.06 19.0679 4.98582e-05 -3.44435 
171 1 6.111 -110.754 17.1552 2.40114e-05 -3.44404 
172 1 6.111 -108.143 18.3725 3.80613e-06 -3.44408 
173 1 4.074 -108.837 16.4592 2.6693e-05 -3.44388 
174 1 8.148 -110.06 19.0679 4.98582e-05 -3.44435 
175 1 10.185 -110.754 17.1552 2.40114e-05 -3.44404 
176 1 10.185 -108.143 18.3725 3.80613e-06 -3.44408 
177 1 8.148 -108.837 16.4592 2.6693e-05 -3.44388 
178 1 3.27951e-11 -111.447 15.2425 0.00018772 -3.44356 
179 1 2.037 -112.143 13.3275 6.02687e-05 -3.44415 
180 1 2.037 -109.532 14.5452 8.54161e-06 -3.44405 
181 1 3.15448e-11 -110.229 12.6311 3.85958e-05 -3.44437 
182 1 4.074 -111.447 15.2425 0.00018772 -3.44356 
183 1 6.111 -112.143 13.3275 6.02687e-05 -3.44415 
184 1 6.111 -109.532 14.5452 8.54161e-06 -3.44405 
185 1 4.074 -110.229 12.6311 3.85958e-05 -3.44437 
186 1 8.148 -111.447 15.2425 0.00018772 -3.44356 
187 1 10.185 -112.143 13.3275 6.02687e-05 -3.44415 
188 1 10.185 -109.532 14.5452 8.54161e-06 -3.44405 
189 1 8.148 -110.229 12.6311 3.85958e-05 -3.44437 
190 1 3.59658e-11 -112.842 11.413 0.000417098 -3.44496 
191 1 2.037 -113.533 9.50158 0.000237226 -3.4439 
192 1 2.037 -110.923 10.7181 3.56141e-05 -3.44404 
193 1 3.41288e-11 -111.616 8.80488 0.000385582 -3.44347 
194 1 4.074 -112.842 11.413 0.000417098 -3.44496 
195 1 6.111 -113.533 9.50158 0.000237226 -3.4439 
196 1 6.111 -110.923 10.7181 3.56141e-05 -3.44404 
197 1 4.074 -111.616 8.80488 0.000385582 -3.44347 
198 1 8.148 -112.842 11.413 0.000417098 -3.44496 
199 1 10.185 -113.533 9.50158 0.000237226 -3.4439 
200 1 10.185 -110.923 10.7181 3.56141e-05 -3.44404 
201 1 8.148 -111.616 8.80488 0.000385582 -3.44347 
202 1 3.69279e-11 -114.221 7.58945 0.00198987 -3.44274 
203 1 2.037 -114.922 5.6709 0.00054846 -3.44482 
204 1 2.037 -112.313 6.88889 0.000192426 -3.44385 
205 1 3.44791e-11 -113.015 4.97194 4.35586e-05 -3.44443 
206 1 4.074 -114.221 7.58945 0.00198987 -3.44274 
207 1 6.111 -114.922 5.6709 0.00054846 -3.44482 
208 1 6.111 -112.313 6.88889 0.000192426 -3.44385 
209 1 4.074 -113.015 4.97194 4.35586e-05 -3.44443 
210 1 8.148 -114.221 7.58945 0.00198987 -3.44274 
211 1 10.185 -114.922 5.6709 0.00054846 -3.44482 
212 1 10.185 -112.313 6.88889 0.000192426 -3.44385 
213 1 8.148 -113.015 4.97194 4.35586e-05 -3.44443 
214 1 3.90545e-11 -115.628 3.75348 0.000563107 -3.44575 
215 1 2.037 -116.325 1.83813 0.00233953 -3.44358 
216 1 2.037 -113.716 3.05518 8.49953e-05 -3.44396 
217 1 3.75121e-11 -114.422 1.1365 0.000901742 -3.44468 
218 1 4.074 -115.628 3.75348 0.000563107 -3.44575 
219 1 6.111 -116.325 1.83813 0.00233953 -3.44358 
220 1 6.111 -113.716 3.05518 8.49953e-05 -3.44396 
221 1 4.074 -114.422 1.1365 0.000901742 -3.44468 
222 1 8.148 -115.628 3.75348 0.000563107 -3.44575 
223 1 10.185 -116.325 1.83813 0.00233953 -3.44358 
224 1 10.185 -113.716 3.05518 8.49953e-05 -3.44396 
225 1 8.148 -114.422 1.1365 0.000901742 -3.44468 
226 1 2.037 -104.14 23.4175 1.64643e-07 -3.44404 
227 1 2.62252e-11 -102.224 22.7214 9.51879e-08 -3.44407 
228 1 6.111 -104.14 23.4175 1.64643e-07 -3.44404 
229 1 4.074 -102.224 22.7214 9.51879e-08 -3.44407 
230 1 10.185 -104.14 23.4175 1.64643e-07 -3.44404 
231 1 8.148 -102.224 22.7214 9.51879e-08 -3.44407 
232 1 2.71889e-11 -104.836 21.5037 3.54638e-07 -3.44409 
233 1 2.037 -105.531 19.59 7.43157e-07 -3.44408 
234 1 2.037 -102.92 20.8076 2.77514e-07 -3.44407 
235 1 2.56295e-11 -103.615 18.8939 1.45542e-06 -3.44404 
236 1 4.074 -104.836 21.5037 3.54638e-07 -3.44409 
237 1 6.111 -105.531 19.59 7.43157e-07 -3.44408 
238 1 6.111 -102.92 20.8076 2.77514e-07 -3.44407 
239 1 4.074 -103.615 18.8939 1.45542e-06 -3.44404 
240 1 8.148 -104.836 21.5037 3.54638e-07 -3.44409 
241 1 10.185 -105.531 19.59 7.43157e-07 -3.44408 
242 1 10.185 -102.92 20.8076 2.77514e-07 -3.44407 
243 1 8.148 -103.615 18.8939 1.45542e-06 -3.44404 
244 1 2.80005e-11 -106.226 17.6764 4.90358e-06 -3.444 
245 1 2.037 -106.922 15.7626 3.22954e-06 -3.44404 
246 1 2.037 -104.311 16.98 1.94295e-06 -3.44405 
247 1 2.70337e-11 -105.006 15.0661 8.39615e-07 -3.44409 
248 1 4.074 -106.226 17.6764 4.90358e-06 -3.444 
249 1 6.111 -106.922 15.7626 3.22954e-06 -3.44404 
250 1 6.111 -104.311 16.98 1.94295e-06 -3.44405 
251 1 4.074 -105.006 15.0661 8.39615e-07 -3.44409 
252 1 8.148 -106.226 17.6764 4.90358e-06 -3.444 
253 1 10.185 -106.922 15.7626 3.22954e-06 -3.44404 
254 1 10.185 -104.311 16.98 1.94295e-06 -3.44405 
255 1 8.148 -105.006 15.0661 8.39616e-07 -3.44409 
256 1 2.86315e-11 -107.617 13.8487 1.60056e-06 -3.44416 
257 1 2.037 -108.313 11.935 8.70197e-06 -3.44407 
258 1 2.037 -105.702 13.1522 4.68031e-06 -3.44406 
259 1 2.75511e-11 -106.397 11.2382 2.76443e-05 -3.44395 
260 1 4.074 -107.617 13.8487 1.60056e-06 -3.44416 
261 1 6.111 -108.313 11.935 8.70197e-06 -3.44407 
262 1 6.111 -105.702 13.1522 4.68031e-06 -3.44406 
263 1 4.074 -106.397 11.2382 2.76443e-05 -3.44395 
264 1 8.148 -107.617 13.8487 1.60056e-06 -3.44416 
265 1 10.185 -108.313 11.935 8.70197e-06 -3.44407 
266 1 10.185 -105.702 13.1522 4.68031e-06 -3.44406 
267 1 8.148 -106.397 11.2382 2.76443e-05 -3.44395 
268 1 3.02984e-11 -109.007 10.0213 9.1547e-05 -3.44381 
269 1 2.037 -109.704 8.10624 8.29461e-05 -3.44388 
270 1 2.037 -107.094 9.32345 3.29838e-05 -3.44394 
271 1 2.92212e-11 -107.792 7.40798 7.66357e-06 -3.44407 
272 1 4.074 -109.007 10.0213 9.1547e-05 -3.44381 
273 1 6.111 -109.704 8.10624 8.29461e-05 -3.44388 
274 1 6.111 -107.094 9.32345 3.29838e-05 -3.44394 
275 1 4.074 -107.792 7.40798 7.66357e-06 -3.44407 
276 1 8.148 -109.007 10.0213 9.1547e-05 -3.44381 
277 1 10.185 -109.704 8.10624 8.29461e-05 -3.44388 
278 1 10.185 -107.094 9.32345 3.29838e-05 -3.44394 
279 1 8.148 -107.792 7.40798 7.66357e-06 -3.44407 
280 1 3.21343e-11 -110.403 6.1901 1.29152e-05 -3.44415 
281 1 2.037 -111.104 4.27366 4.00402e-05 -3.44414 
282 1 2.037 -108.492 5.49213 2.29289e-05 -3.44416 
283 1 3.15997e-11 -109.192 3.57636 9.66988e-05 -3.44425 
284 1 4.074 -110.403 6.1901 1.29152e-05 -3.44415 
285 1 6.111 -111.104 4.27366 4.00402e-05 -3.44414 
286 1 6.111 -108.492 5.49213 2.29289e-05 -3.44416 
287 1 4.074 -109.192 3.57636 9.66988e-05 -3.44425 
288 1 8.148 -110.403 6.1901 1.29152e-05 -3.44415 
289 1 10.185 -111.104 4.27366 4.00402e-05 -3.44414 
290 1 10.185 -108.492 5.49213 2.29289e-05 -3.44416 
291 1 8.148 -109.192 3.57636 9.66988e-05 -3.44425 
292 1 3.3998e-11 -111.806 2.35702 0.000254599 -3.44434 
293 1 2.037 -109.891 1.66166 0.000157198 -3.44434 
294 1 4.074 -111.806 2.35702 0.000254599 -3.44434 
295 1 6.111 -109.891 1.66166 0.000157198 -3.44434 
296 1 8.148 -111.806 2.35702 0.000254599 -3.44434 
297 1 10.185 -109.891 1.66166 0.000157198 -3.44434 
298 1 2.037 -99.6128 0.0966144 8.90764e-08 -3.44406 
299 1 2.037 -100.309 22.0252 1.87091e-07 -3.44406 
300 1 2.037 -97.6971 23.2429 1.35536e-07 -3.44406 
301 1 2.59075e-11 -98.3928 21.329 4.24405e-07 -3.44406 
302 1 6.111 -99.6128 0.0966144 8.90764e-08 -3.44406 
303 1 6.111 -100.309 22.0252 1.87091e-07 -3.44406 
304 1 6.111 -97.6971 23.2429 1.35536e-07 -3.44406 
305 1 4.074 -98.3928 21.329 4.24405e-07 -3.44406 
306 1 10.185 -99.6128 0.0966144 8.90764e-08 -3.44406 
307 1 10.185 -100.309 22.0252 1.87091e-07 -3.44406 
308 1 10.185 -97.6971 23.2429 1.35536e-07 -3.44406 
309 1 8.148 -98.3928 21.329 4.24405e-07 -3.44406 
310 1 2.57834e-11 -101.004 20.1114 6.9194e-07 -3.44406 
311 1 2.037 -101.7 18.1975 1.30416e-06 -3.44405 
312 1 2.037 -99.0885 19.415 9.02039e-07 -3.44406 
313 1 2.52287e-11 -99.7843 17.501 1.37649e-06 -3.44406 
314 1 4.074 -101.004 20.1114 6.9194e-07 -3.44406 
315 1 6.111 -101.7 18.1975 1.30416e-06 -3.44405 
316 1 6.111 -99.0885 19.415 9.02039e-07 -3.44406 
317 1 4.074 -99.7843 17.501 1.37649e-06 -3.44406 
318 1 8.148 -101.004 20.1114 6.9194e-07 -3.44406 
319 1 10.185 -101.7 18.1975 1.30416e-06 -3.44405 
320 1 10.185 -99.0885 19.415 9.02039e-07 -3.44406 
321 1 8.148 -99.7843 17.501 1.37649e-06 -3.44406 
322 1 2.52409e-11 -102.395 16.2836 1.45866e-06 -3.44407 
323 1 2.037 -103.091 14.3695 3.42287e-06 -3.44405 
324 1 2.037 -100.48 15.5869 2.46405e-06 -3.44405 
325 1 2.47531e-11 -101.176 13.6727 4.87495e-06 -3.44403 
326 1 4.074 -102.395 16.2836 1.45866e-06 -3.44407 
327 1 6.111 -103.091 14.3695 3.42287e-06 -3.44405 
328 1 6.111 -100.48 15.5869 2.46405e-06 -3.44405 
329 1 4.074 -101.176 13.6727 4.87495e-06 -3.44403 
330 1 8.148 -102.395 16.2836 1.45866e-06 -3.44407 
331 1 10.185 -103.091 14.3695 3.42287e-06 -3.44405 
332 1 10.185 -100.48 15.5869 2.46405e-06 -3.44405 
333 1 8.148 -101.176 13.6727 4.87495e-06 -3.44403 
334 1 2.63691e-11 -103.787 12.4553 1.05815e-05 -3.444 
335 1 2.037 -104.484 10.5407 1.30501e-05 -3.44399 
336 1 2.037 -101.873 11.7582 5.46652e-06 -3.44402 
337 1 2.5712e-11 -102.57 9.84334 2.00276e-06 -3.44405 
338 1 4.074 -103.787 12.4553 1.05815e-05 -3.444 
339 1 6.111 -104.484 10.5407 1.30501e-05 -3.44399 
340 1 6.111 -101.873 11.7582 5.46652e-06 -3.44402 
341 1 4.074 -102.57 9.84334 2.00276e-06 -3.44405 
342 1 8.148 -103.787 12.4553 1.05815e-05 -3.444 
343 1 10.185 -104.484 10.5407 1.30501e-05 -3.44399 
344 1 10.185 -101.873 11.7582 5.46652e-06 -3.44402 
345 1 8.148 -102.57 9.84334 2.00276e-06 -3.44405 
346 1 2.662e-11 -105.181 8.62567 4.08299e-06 -3.44405 
347 1 2.037 -105.88 6.71031 1.02074e-05 -3.44413 
348 1 2.037 -103.268 7.92831 4.25892e-06 -3.4441 
349 1 2.64774e-11 -103.967 6.01333 1.69693e-05 -3.44414 
350 1 4.074 -105.181 8.62567 4.08299e-06 -3.44405 
351 1 6.111 -105.88 6.71031 1.02074e-05 -3.44413 
352 1 6.111 -103.268 7.92831 4.25892e-06 -3.4441 
353 1 4.074 -103.967 6.01333 1.69693e-05 -3.44414 
354 1 8.148 -105.181 8.62567 4.08299e-06 -3.44405 
355 1 10.185 -105.88 6.71031 1.02074e-05 -3.44413 
356 1 10.185 -103.268 7.92831 4.25892e-06 -3.4441 
357 1 8.148 -103.967 6.01333 1.69693e-05 -3.44414 
358 1 2.85712e-11 -106.579 4.79504 3.9862e-05 -3.44419 
359 1 2.037 -107.277 2.88038 5.56664e-05 -3.44421 
360 1 2.037 -104.664 4.09873 2.3757e-05 -3.44415 
361 1 2.78589e-11 -105.361 2.18472 9.01202e-06 -3.44408 
362 1 4.074 -106.579 4.79504 3.9862e-05 -3.44419 
363 1 6.111 -107.277 2.88038 5.56664e-05 -3.44421 
364 1 6.111 -104.664 4.09873 2.3757e-05 -3.44415 
365 1 4.074 -105.361 2.18472 9.01202e-06 -3.44408 
366 1 8.148 -106.579 4.79504 3.9862e-05 -3.44419 
367 1 10.185 -107.277 2.88038 5.56664e-05 -3.44421 
368 1 10.185 -104.664 4.09873 2.3757e-05 -3.44415 
369 1 8.148 -105.361 2.18472 9.01202e-06 -3.44408 
370 1 2.99696e-11 -107.973 0.966702 1.40288e-05 -3.44405 
371 1 4.074 -107.973 0.966702 1.40288e-05 -3.44405 
372 1 8.148 -107.973 0.966702 1.40288e-05 -3.44405 
373 1 2.83085e-11 -93.1702 23.7641 1.89875e-07 -3.44406 
374 1 4.074 -93.1702 23.7641 1.89875e-07 -3.44406 
375 1 8.148 -93.1702 23.7641 1.89875e-07 -3.44406 
376 1 2.6807e-11 -95.7815 22.5465 2.82895e-07 -3.44406 
377 1 2.037 -96.4774 20.6326 6.28165e-07 -3.44406 
378 1 2.037 -93.8661 21.8501 4.35303e-07 -3.44406 
379 1 2.65263e-11 -94.5621 19.9361 7.52866e-07 -3.44406 
380 1 4.074 -95.7815 22.5465 2.82895e-07 -3.44406 
381 1 6.111 -96.4774 20.6326 6.28165e-07 -3.44406 
382 1 6.111 -93.8661 21.8501 4.35303e-07 -3.44406 
383 1 4.074 -94.5621 19.9361 7.52866e-07 -3.44406 
384 1 8.148 -95.7815 22.5465 2.82895e-07 -3.44406 
385 1 10.185 -96.4774 20.6326 6.28165e-07 -3.44406 
386 1 10.185 -93.8661 21.8501 4.35303e-07 -3.44406 
387 1 8.148 -94.5621 19.9361 7.52866e-07 -3.44406 
388 1 2.61595e-11 -97.1732 18.7185 1.05892e-06 -3.44406 
389 1 2.037 -97.8693 16.8044 1.68498e-06 -3.44405 
390 1 2.037 -95.2582 18.0219 1.11647e-06 -3.44405 
391 1 2.5473e-11 -95.9545 16.1077 1.42229e-06 -3.44405 
392 1 4.074 -97.1732 18.7185 1.05892e-06 -3.44406 
393 1 6.111 -97.8693 16.8044 1.68498e-06 -3.44405 
394 1 6.111 -95.2582 18.0219 1.11647e-06 -3.44405 
395 1 4.074 -95.9545 16.1077 1.42229e-06 -3.44405 
396 1 8.148 -97.1732 18.7185 1.05892e-06 -3.44406 
397 1 10.185 -97.8693 16.8044 1.68498e-06 -3.44405 
398 1 10.185 -95.2582 18.0219 1.11647e-06 -3.44405 
399 1 8.148 -95.9545 16.1077 1.42229e-06 -3.44405 
400 1 2.5087e-11 -98.5655 14.8901 2.53709e-06 -3.44404 
401 1 2.037 -99.2621 12.9757 2.48956e-06 -3.44404 
402 1 2.037 -96.651 14.1933 1.23353e-06 -3.44405 
403 1 2.61349e-11 -97.348 12.2787 4.85902e-07 -3.44406 
404 1 4.074 -98.5655 14.8901 2.53709e-06 -3.44404 
405 1 6.111 -99.2621 12.9757 2.48956e-06 -3.44404 
406 1 6.111 -96.651 14.1933 1.23353e-06 -3.44405 
407 1 4.074 -97.348 12.2787 4.85902e-07 -3.44406 
408 1 8.148 -98.5655 14.8901 2.53709e-06 -3.44404 
409 1 10.185 -99.2621 12.9757 2.48956e-06 -3.44404 
410 1 10.185 -96.651 14.1933 1.23353e-06 -3.44405 
411 1 8.148 -97.348 12.2787 4.85902e-07 -3.44406 
412 1 2.45219e-11 -99.9592 11.061 9.71519e-07 -3.44405 
413 1 2.037 -100.657 9.1462 1.8124e-06 -3.44409 
414 1 2.037 -98.0452 10.364 8.1029e-07 -3.44408 
415 1 2.55539e-11 -98.7426 8.44938 3.42681e-06 -3.4441 
416 1 4.074 -99.9592 11.061 9.71519e-07 -3.44405 
417 1 6.111 -100.657 9.1462 1.8124e-06 -3.44409 
418 1 6.111 -98.0452 10.364 8.1029e-07 -3.44408 
419 1 4.074 -98.7426 8.44938 3.42681e-06 -3.4441 
420 1 8.148 -99.9592 11.061 9.71519e-07 -3.44405 
421 1 10.185 -100.657 9.1462 1.8124e-06 -3.44409 
422 1 10.185 -98.0452 10.364 8.1029e-07 -3.44408 
423 1 8.148 -98.7426 8.44938 3.42681e-06 -3.4441 
424 1 2.5093e-11 -101.355 7.23141 7.47168e-06 -3.44411 
425 1 2.037 -102.052 5.31687 1.12337e-05 -3.44412 
426 1 2.037 -99.4398 6.53488 5.63121e-06 -3.4441 
427 1 2.56469e-11 -100.137 4.62064 4.0154e-06 -3.44408 
428 1 4.074 -101.355 7.23141 7.47168e-06 -3.44411 
429 1 6.111 -102.052 5.31687 1.12337e-05 -3.44412 
430 1 6.111 -99.4398 6.53488 5.63121e-06 -3.4441 
431 1 4.074 -100.137 4.62064 4.0154e-06 -3.44408 
432 1 8.148 -101.355 7.23141 7.47168e-06 -3.44411 
433 1 10.185 -102.052 5.31687 1.12337e-05 -3.44412 
434 1 10.185 -99.4398 6.53488 5.63121e-06 -3.4441 
435 1 8.148 -100.137 4.62064 4.0154e-06 -3.44408 
436 1 2.64095e-11 -102.749 3.40271 6.12104e-06 -3.44408 
437 1 2.037 -103.445 1.48884 7.68873e-07 -3.44403 
438 1 2.037 -100.833 2.70665 1.04826e-06 -3.44406 
439 1 2.55006e-11 -101.529 0.792768 1.31217e-07 -3.44405 
440 1 4.074 -102.749 3.40271 6.12104e-06 -3.44408 
441 1 6.111 -103.445 1.48884 7.68873e-07 -3.44403 
442 1 6.111 -100.833 2.70665 1.04826e-06 -3.44406 
443 1 4.074 -101.529 0.792768 1.31217e-07 -3.44405 
444 1 8.148 -102.749 3.40271 6.12104e-06 -3.44408 
445 1 10.185 -103.445 1.48884 7.68873e-07 -3.44403 
446 1 10.185 -100.833 2.70665 1.04826e-06 -3.44406 
447 1 8.148 -101.529 0.792768 1.31217e-07 -3.44405 
448 1 2.037 -91.2549 23.0677 2.99276e-07 -3.44406 
449 1 4.074 -88.6436 0.442846 2.05129e-07 -3.44406 
450 1 2.77853e-11 -89.3397 22.3712 3.54445e-07 -3.44406 
451 1 6.111 -91.2549 23.0677 2.99276e-07 -3.44406 
452 1 8.148 -88.6436 0.442846 2.05129e-07 -3.44406 
453 1 4.074 -89.3397 22.3712 3.54445e-07 -3.44406 
454 1 10.185 -91.2549 23.0677 2.99276e-07 -3.44406 
455 1 2.84807e-11 -88.6436 0.442846 2.05129e-07 -3.44406 
456 1 8.148 -89.3397 22.3712 3.54445e-07 -3.44406 
457 1 2.80354e-11 -91.9509 21.1536 5.18733e-07 -3.44406 
458 1 2.037 -92.6471 19.2395 7.31055e-07 -3.44406 
459 1 2.037 -90.0359 20.457 4.79834e-07 -3.44406 
460 1 2.92608e-11 -90.7322 18.5428 5.09618e-07 -3.44406 
461 1 4.074 -91.9509 21.1536 5.18733e-07 -3.44406 
462 1 6.111 -92.6471 19.2395 7.31055e-07 -3.44406 
463 1 6.111 -90.0359 20.457 4.79834e-07 -3.44406 
464 1 4.074 -90.7322 18.5428 5.09618e-07 -3.44406 
465 1 8.148 -91.9509 21.1536 5.18733e-07 -3.44406 
466 1 10.185 -92.6471 19.2395 7.31055e-07 -3.44406 
467 1 10.185 -90.0359 20.457 4.79834e-07 -3.44406 
468 1 8.148 -90.7322 18.5428 5.09618e-07 -3.44406 
469 1 2.68019e-11 -93.3434 17.3252 8.3638e-07 -3.44405 
470 1 2.037 -94.0399 15.4109 6.57028e-07 -3.44405 
471 1 2.037 -91.4287 16.6285 3.70914e-07 -3.44406 
472 1 2.8451e-11 -92.1254 14.714 1.38819e-07 -3.44406 
473 1 4.074 -93.3434 17.3252 8.3638e-07 -3.44405 
474 1 6.111 -94.0399 15.4109 6.57028e-07 -3.44405 
475 1 6.111 -91.4287 16.6285 3.70914e-07 -3.44406 
476 1 4.074 -92.1254 14.714 1.38819e-07 -3.44406 
477 1 8.148 -93.3434 17.3252 8.3638e-07 -3.44405 
478 1 10.185 -94.0399 15.4109 6.57028e-07 -3.44405 
479 1 10.185 -91.4287 16.6285 3.70914e-07 -3.44406 
480 1 8.148 -92.1254 14.714 1.38819e-07 -3.44406 
481 1 2.77849e-11 -94.7367 13.4964 2.54142e-07 -3.44406 
482 1 2.037 -95.4337 11.5818 3.82575e-07 -3.44407 
483 1 2.037 -92.8223 12.7996 1.89664e-07 -3.44407 
484 1 2.82232e-11 -93.5192 10.8851 8.2538e-07 -3.44408 
485 1 4.074 -94.7367 13.4964 2.54142e-07 -3.44406 
486 1 6.111 -95.4337 11.5818 3.82575e-07 -3.44407 
487 1 6.111 -92.8223 12.7996 1.89664e-07 -3.44407 
488 1 4.074 -93.5192 10.8851 8.2538e-07 -3.44408 
489 1 8.148 -94.7367 13.4964 2.54142e-07 -3.44406 
490 1 10.185 -95.4337 11.5818 3.82575e-07 -3.44407 
491 1 10.185 -92.8223 12.7996 1.89664e-07 -3.44407 
492 1 8.148 -93.5192 10.8851 8.2538e-07 -3.44408 
493 1 2.66583e-11 -96.1309 9.66727 1.64386e-06 -3.44408 
494 1 2.037 -96.8279 7.75282 2.93593e-06 -3.44409 
495 1 2.037 -94.2161 8.9707 1.58142e-06 -3.44408 
496 1 2.68904e-11 -94.9128 7.05641 1.58865e-06 -3.44408 
497 1 4.074 -96.1309 9.66727 1.64386e-06 -3.44408 
498 1 6.111 -96.8279 7.75282 2.93593e-06 -3.44409 
499 1 6.111 -94.2161 8.9707 1.58142e-06 -3.44408 
500 1 4.074 -94.9128 7.05641 1.58865e-06 -3.44408 
501 1 8.148 -96.1309 9.66727 1.64386e-06 -3.44408 
502 1 10.185 -96.8279 7.75282 2.93593e-06 -3.44409 
503 1 10.185 -94.2161 8.9707 1.58142e-06 -3.44408 
504 1 8.148 -94.9128 7.05641 1.58865e-06 -3.44408 
505 1 2.62584e-11 -97.5247 5.83855 2.54951e-06 -3.44408 
506 1 2.037 -98.221 3.92446 1.05702e-06 -3.44407 
507 1 2.037 -95.6092 5.14227 8.71481e-07 -3.44407 
508 1 2.59092e-11 -96.3054 3.22825 2.64525e-07 -3.44406 
509 1 4.074 -97.5247 5.83855 2.54951e-06 -3.44408 
510 1 6.111 -98.221 3.92446 1.05702e-06 -3.44407 
511 1 6.111 -95.6092 5.14227 8.71481e-07 -3.44407 
512 1 4.074 -96.3054 3.22825 2.64525e-07 -3.44406 
513 1 8.148 -97.5247 5.83855 2.54951e-06 -3.44408 
514 1 10.185 -98.221 3.92446 1.05702e-06 -3.44407 
515 1 10.185 -95.6092 5.14227 8.71481e-07 -3.44407 
516 1 8.148 -96.3054 3.22825 2.64525e-07 -3.44406 
517 1 2.50968e-11 -98.917 2.0105 2.24469e-07 -3.44406 
518 1 2.037 -97.0013 1.3143 7.95954e-08 -3.44406 
519 1 4.074 -98.917 2.0105 2.24469e-07 -3.44406 
520 1 6.111 -97.0013 1.3143 7.95954e-08 -3.44406 
521 1 8.148 -98.917 2.0105 2.24469e-07 -3.44406 
522 1 10.185 -97.0013 1.3143 7.95954e-08 -3.44406 
523 1 2.81397e-11 -86.7284 23.5888 2.44059e-07 -3.44406 
524 1 2.037 -87.4246 21.6746 3.19396e-07 -3.44406 
525 1 2.037 -84.8133 22.8923 2.18254e-07 -3.44406 
526 1 2.89453e-11 -85.5097 20.978 2.08717e-07 -3.44406 
527 1 4.074 -86.7284 23.5888 2.44059e-07 -3.44406 
528 1 6.111 -87.4246 21.6746 3.19396e-07 -3.44406 
529 1 6.111 -84.8133 22.8923 2.18254e-07 -3.44406 
530 1 4.074 -85.5097 20.978 2.08717e-07 -3.44406 
531 1 8.148 -86.7284 23.5888 2.44059e-07 -3.44406 
532 1 10.185 -87.4246 21.6746 3.19396e-07 -3.44406 
533 1 10.185 -84.8133 22.8923 2.18254e-07 -3.44406 
534 1 8.148 -85.5097 20.978 2.08717e-07 -3.44406 
535 1 2.93343e-11 -88.121 19.7604 3.20576e-07 -3.44406 
536 1 2.037 -88.8174 17.8461 2.19421e-07 -3.44406 
537 1 2.037 -86.2062 19.0637 1.35161e-07 -3.44406 
538 1 2.97271e-11 -86.9027 17.1494 4.52956e-08 -3.44406 
539 1 4.074 -88.121 19.7604 3.20576e-07 -3.44406 
540 1 6.111 -88.8174 17.8461 2.19421e-07 -3.44406 
541 1 6.111 -86.2062 19.0637 1.35161e-07 -3.44406 
542 1 4.074 -86.9027 17.1494 4.52956e-08 -3.44406 
543 1 8.148 -88.121 19.7604 3.20576e-07 -3.44406 
544 1 10.185 -88.8174 17.8461 2.19421e-07 -3.44406 
545 1 10.185 -86.2062 19.0637 1.35161e-07 -3.44406 
546 1 8.148 -86.9027 17.1494 4.52956e-08 -3.44406 
547 1 2.93643e-11 -89.5141 15.9317 7.84534e-08 -3.44406 
548 1 2.037 -90.2108 14.0173 9.78884e-08 -3.44407 
549 1 2.037 -87.5994 15.235 5.215e-08 -3.44407 
550 1 3.00604e-11 -88.2961 13.3206 2.38555e-07 -3.44407 
551 1 4.074 -89.5141 15.9317 7.84534e-08 -3.44406 
552 1 6.111 -90.2108 14.0173 9.78884e-08 -3.44407 
553 1 6.111 -87.5994 15.235 5.215e-08 -3.44407 
554 1 4.074 -88.2961 13.3206 2.38555e-07 -3.44407 
555 1 8.148 -89.5141 15.9317 7.84534e-08 -3.44406 
556 1 10.185 -90.2108 14.0173 9.78884e-08 -3.44407 
557 1 10.185 -87.5994 15.235 5.215e-08 -3.44407 
558 1 8.148 -88.2961 13.3206 2.38555e-07 -3.44407 
559 1 2.85643e-11 -90.9077 12.1029 4.33584e-07 -3.44407 
560 1 2.037 -91.6044 10.1885 8.79114e-07 -3.44408 
561 1 2.037 -88.9928 11.4063 5.05662e-07 -3.44407 
562 1 2.84812e-11 -89.6894 9.49203 6.13178e-07 -3.44407 
563 1 4.074 -90.9077 12.1029 4.33584e-07 -3.44407 
564 1 6.111 -91.6044 10.1885 8.79114e-07 -3.44408 
565 1 6.111 -88.9928 11.4063 5.05662e-07 -3.44407 
566 1 4.074 -89.6894 9.49203 6.13178e-07 -3.44407 
567 1 8.148 -90.9077 12.1029 4.33584e-07 -3.44407 
568 1 10.185 -91.6044 10.1885 8.79114e-07 -3.44408 
569 1 10.185 -88.9928 11.4063 5.05662e-07 -3.44407 
570 1 8.148 -89.6894 9.49203 6.13178e-07 -3.44407 
571 1 2.82784e-11 -92.3011 8.27424 9.84162e-07 -3.44407 
572 1 2.037 -92.9975 6.36007 6.49398e-07 -3.44407 
573 1 2.037 -90.3859 7.57784 4.59953e-07 -3.44407 
574 1 2.83938e-11 -91.0821 5.66373 2.08828e-07 -3.44407 
575 1 4.074 -92.3011 8.27424 9.84162e-07 -3.44407 
576 1 6.111 -92.9975 6.36007 6.49398e-07 -3.44407 
577 1 6.111 -90.3859 7.57784 4.59953e-07 -3.44407 
578 1 4.074 -91.0821 5.66373 2.08828e-07 -3.44407 
579 1 8.148 -92.3011 8.27424 9.84162e-07 -3.44407 
580 1 10.185 -92.9975 6.36007 6.49398e-07 -3.44407 