ITEM: TIMESTEP
0
ITEM: NUMBER OF ATOMS
4590
ITEM: BOX BOUNDS xy xz yz pp pp ff
-1.7763568394002505e-15 17.88431575431389 -1.7763568394002505e-15
0.0 21.04441731196185 0.0
-101.25 101.25 0.0
ITEM: ATOMS id type x y z
1 2 -0.0000000000 14.0296115413 0.0000000000
2 2 -0.0000000000 7.0148057707 0.0000000000
3 2 0.0000000000 0.0000000000 0.0000000000
4 2 11.9228771695 16.3678801315 -0.0000000000
5 2 11.9228771695 9.3530743609 -0.0000000000
6 2 11.9228771695 2.3382685902 -0.0000000000
7 2 5.9614385848 18.7061487217 -0.0000000000
8 2 5.9614385848 11.6913429511 -0.0000000000
9 2 5.9614385848 4.6765371804 -0.0000000000
10 2 16.2793130584 11.6913429511 -0.3971351737
11 2 16.2793130584 4.6765371804 -0.3971351737
12 2 16.2793130584 18.7061487217 -0.3971351737
13 2 10.3178744736 14.0296115413 -0.3971351737
14 2 10.3178744736 7.0148057707 -0.3971351737
15 2 10.3178744736 -0.0000000000 -0.3971351737
16 2 4.3564358889 16.3678801315 -0.3971351737
17 2 4.3564358889 9.3530743609 -0.3971351737
18 2 4.3564358889 2.3382685902 -0.3971351737
19 2 14.6743103625 9.3530743609 -0.7942703473
20 2 14.6743103625 2.3382685902 -0.7942703473
21 2 14.6743103625 16.3678801315 -0.7942703473
22 2 8.7128717777 11.6913429511 -0.7942703473
23 2 8.7128717777 4.6765371804 -0.7942703473
24 2 8.7128717777 18.7061487217 -0.7942703473
25 2 2.7514331930 14.0296115413 -0.7942703473
26 2 2.7514331930 7.0148057707 -0.7942703473
27 2 2.7514331930 0.0000000000 -0.7942703473
28 2 13.0693076666 7.0148057707 -1.1914055210
29 2 13.0693076666 -0.0000000000 -1.1914055210
30 2 13.0693076666 14.0296115413 -1.1914055210
31 2 7.1078690818 9.3530743609 -1.1914055210
32 2 7.1078690818 2.3382685902 -1.1914055210
33 2 7.1078690818 16.3678801315 -1.1914055210
34 2 1.1464304971 11.6913429511 -1.1914055210
35 2 1.1464304971 4.6765371804 -1.1914055210
36 2 1.1464304971 18.7061487217 -1.1914055210
37 2 11.4643049707 4.6765371804 -1.5885406946
38 2 11.4643049707 18.7061487217 -1.5885406946
39 2 11.4643049707 11.6913429511 -1.5885406946
40 2 5.5028663859 7.0148057707 -1.5885406946
41 2 5.5028663859 0.0000000000 -1.5885406946
42 2 5.5028663859 14.0296115413 -1.5885406946
43 2 17.4257435555 9.3530743609 -1.5885406946
44 2 17.4257435555 2.3382685902 -1.5885406946
45 2 17.4257435555 16.3678801315 -1.5885406946
46 2 9.8593022748 2.3382685902 -1.9856758683
47 2 9.8593022748 16.3678801315 -1.9856758683
48 2 9.8593022748 9.3530743609 -1.9856758683
49 2 3.8978636900 4.6765371804 -1.9856758683
50 2 3.8978636900 18.7061487217 -1.9856758683
51 2 3.8978636900 11.6913429511 -1.9856758683
52 2 15.8207408596 7.0148057707 -1.9856758683
53 2 15.8207408596 0.0000000000 -1.9856758683
54 2 15.8207408596 14.0296115413 -1.9856758683
55 2 8.2542995789 0.0000000000 -2.3828110419
56 2 8.2542995789 14.0296115413 -2.3828110419
57 2 8.2542995789 7.0148057707 -2.3828110419
58 2 2.2928609941 2.3382685902 -2.3828110419
59 2 2.2928609941 16.3678801315 -2.3828110419
60 2 2.2928609941 9.3530743609 -2.3828110419
61 2 14.2157381637 4.6765371804 -2.3828110419
62 2 14.2157381637 18.7061487217 -2.3828110419
63 2 14.2157381637 11.6913429511 -2.3828110419
64 2 6.6492968830 18.7061487217 -2.7799462156
65 2 6.6492968830 11.6913429511 -2.7799462156
66 2 6.6492968830 4.6765371804 -2.7799462156
67 2 0.6878582982 0.0000000000 -2.7799462156
68 2 0.6878582982 14.0296115413 -2.7799462156
69 2 0.6878582982 7.0148057707 -2.7799462156
70 2 12.6107354678 2.3382685902 -2.7799462156
71 2 12.6107354678 16.3678801315 -2.7799462156
72 2 12.6107354678 9.3530743609 -2.7799462156
73 2 5.0442941871 16.3678801315 -3.1770813892
74 2 5.0442941871 9.3530743609 -3.1770813892
75 2 5.0442941871 2.3382685902 -3.1770813892
76 2 16.9671713567 18.7061487217 -3.1770813892
77 2 16.9671713567 11.6913429511 -3.1770813892
78 2 16.9671713567 4.6765371804 -3.1770813892
79 2 11.0057327719 0.0000000000 -3.1770813892
80 2 11.0057327719 14.0296115413 -3.1770813892
81 2 11.0057327719 7.0148057707 -3.1770813892
82 2 3.4392914912 14.0296115413 -3.5742165629
83 2 3.4392914912 7.0148057707 -3.5742165629
84 2 3.4392914912 0.0000000000 -3.5742165629
85 2 15.3621686608 16.3678801315 -3.5742165629
86 2 15.3621686608 9.3530743609 -3.5742165629
87 2 15.3621686608 2.3382685902 -3.5742165629
88 2 9.4007300760 18.7061487217 -3.5742165629
89 2 9.4007300760 11.6913429511 -3.5742165629
90 2 9.4007300760 4.6765371804 -3.5742165629
91 2 1.8342887953 11.6913429511 -3.9713517365
92 2 1.8342887953 4.6765371804 -3.9713517365
93 2 1.8342887953 18.7061487217 -3.9713517365
94 2 13.7571659649 14.0296115413 -3.9713517365
95 2 13.7571659649 7.0148057707 -3.9713517365
96 2 13.7571659649 0.0000000000 -3.9713517365
97 2 7.7957273801 16.3678801315 -3.9713517365
98 2 7.7957273801 9.3530743609 -3.9713517365
99 2 7.7957273801 2.3382685902 -3.9713517365
100 2 0.2292860994 9.3530743609 -4.3684869102
101 2 0.2292860994 2.3382685902 -4.3684869102
102 2 0.2292860994 16.3678801315 -4.3684869102
103 2 12.1521632690 11.6913429511 -4.3684869102
104 2 12.1521632690 4.6765371804 -4.3684869102
105 2 12.1521632690 18.7061487217 -4.3684869102
106 2 6.1907246842 14.0296115413 -4.3684869102
107 2 6.1907246842 7.0148057707 -4.3684869102
108 2 6.1907246842 -0.0000000000 -4.3684869102
109 2 16.5085991578 7.0148057707 -4.7656220839
110 2 16.5085991578 0.0000000000 -4.7656220839
111 2 16.5085991578 14.0296115413 -4.7656220839
112 2 10.5471605731 9.3530743609 -4.7656220839
113 2 10.5471605731 2.3382685902 -4.7656220839
114 2 10.5471605731 16.3678801315 -4.7656220839
115 2 4.5857219883 11.6913429511 -4.7656220839
116 2 4.5857219883 4.6765371804 -4.7656220839
117 2 4.5857219883 18.7061487217 -4.7656220839
118 2 14.9035964619 4.6765371804 -5.1627572575
119 2 14.9035964619 18.7061487217 -5.1627572575
120 2 14.9035964619 11.6913429511 -5.1627572575
121 2 8.9421578772 7.0148057707 -5.1627572575
122 2 8.9421578772 0.0000000000 -5.1627572575
123 2 8.9421578772 14.0296115413 -5.1627572575
124 2 2.9807192924 9.3530743609 -5.1627572575
125 2 2.9807192924 2.3382685902 -5.1627572575
126 2 2.9807192924 16.3678801315 -5.1627572575
127 2 13.2985937660 2.3382685902 -5.5598924312
128 2 13.2985937660 16.3678801315 -5.5598924312
129 2 13.2985937660 9.3530743609 -5.5598924312
130 2 7.3371551813 4.6765371804 -5.5598924312
131 2 7.3371551813 18.7061487217 -5.5598924312
132 2 7.3371551813 11.6913429511 -5.5598924312
133 2 1.3757165965 7.0148057707 -5.5598924312
134 2 1.3757165965 0.0000000000 -5.5598924312
135 2 1.3757165965 14.0296115413 -5.5598924312
136 2 11.6935910701 0.0000000000 -5.9570276048
137 2 11.6935910701 14.0296115413 -5.9570276048
138 2 11.6935910701 7.0148057707 -5.9570276048
139 2 5.7321524854 2.3382685902 -5.9570276048
140 2 5.7321524854 16.3678801315 -5.9570276048
141 2 5.7321524854 9.3530743609 -5.9570276048
142 2 17.6550296549 4.6765371804 -5.9570276048
143 2 17.6550296549 18.7061487217 -5.9570276048
144 2 17.6550296549 11.6913429511 -5.9570276048
145 2 10.0885883742 18.7061487217 -6.3541627785
146 2 10.0885883742 11.6913429511 -6.3541627785
147 2 10.0885883742 4.6765371804 -6.3541627785
148 2 4.1271497895 0.0000000000 -6.3541627785
149 2 4.1271497895 14.0296115413 -6.3541627785
150 2 4.1271497895 7.0148057707 -6.3541627785
151 2 16.0500269590 2.3382685902 -6.3541627785
152 2 16.0500269590 16.3678801315 -6.3541627785
153 2 16.0500269590 9.3530743609 -6.3541627785
154 2 8.4835856783 16.3678801315 -6.7512979521
155 2 8.4835856783 9.3530743609 -6.7512979521
156 2 8.4835856783 2.3382685902 -6.7512979521
157 2 2.5221470936 18.7061487217 -6.7512979521
158 2 2.5221470936 11.6913429511 -6.7512979521
159 2 2.5221470936 4.6765371804 -6.7512979521
160 2 14.4450242631 -0.0000000000 -6.7512979521
161 2 14.4450242631 14.0296115413 -6.7512979521
162 2 14.4450242631 7.0148057707 -6.7512979521
163 2 6.8785829824 14.0296115413 -7.1484331258
164 2 6.8785829824 7.0148057707 -7.1484331258
165 2 6.8785829824 0.0000000000 -7.1484331258
166 2 0.9171443977 16.3678801315 -7.1484331258
167 2 0.9171443977 9.3530743609 -7.1484331258
168 2 0.9171443977 2.3382685902 -7.1484331258
169 2 12.8400215672 18.7061487217 -7.1484331258
170 2 12.8400215672 11.6913429511 -7.1484331258
171 2 12.8400215672 4.6765371804 -7.1484331258
172 2 5.2735802865 11.6913429511 -7.5455682994
173 2 5.2735802865 4.6765371804 -7.5455682994
174 2 5.2735802865 18.7061487217 -7.5455682994
175 2 17.1964574561 14.0296115413 -7.5455682994
176 2 17.1964574561 7.0148057707 -7.5455682994
177 2 17.1964574561 0.0000000000 -7.5455682994
178 2 11.2350188713 16.3678801315 -7.5455682994
179 2 11.2350188713 9.3530743609 -7.5455682994
180 2 11.2350188713 2.3382685902 -7.5455682994
181 2 3.6685775906 9.3530743609 -7.9427034731
182 2 3.6685775906 2.3382685902 -7.9427034731
183 2 3.6685775906 16.3678801315 -7.9427034731
184 2 15.5914547602 11.6913429511 -7.9427034731
185 2 15.5914547602 4.6765371804 -7.9427034731
186 2 15.5914547602 18.7061487217 -7.9427034731
187 2 9.6300161754 14.0296115413 -7.9427034731
188 2 9.6300161754 7.0148057707 -7.9427034731
189 2 9.6300161754 0.0000000000 -7.9427034731
190 2 2.0635748947 7.0148057707 -8.3398386468
191 2 2.0635748947 0.0000000000 -8.3398386468
192 2 2.0635748947 14.0296115413 -8.3398386468
193 2 13.9864520643 9.3530743609 -8.3398386468
194 2 13.9864520643 2.3382685902 -8.3398386468
195 2 13.9864520643 16.3678801315 -8.3398386468
196 2 8.0250134795 11.6913429511 -8.3398386468
197 2 8.0250134795 4.6765371804 -8.3398386468
198 2 8.0250134795 18.7061487217 -8.3398386468
199 2 0.4585721988 4.6765371804 -8.7369738204
200 2 0.4585721988 18.7061487217 -8.7369738204
201 2 0.4585721988 11.6913429511 -8.7369738204
202 2 12.3814493684 7.0148057707 -8.7369738204
203 2 12.3814493684 -0.0000000000 -8.7369738204
204 2 12.3814493684 14.0296115413 -8.7369738204
205 2 6.4200107836 9.3530743609 -8.7369738204
206 2 6.4200107836 2.3382685902 -8.7369738204
207 2 6.4200107836 16.3678801315 -8.7369738204
208 2 16.7378852572 2.3382685902 -9.1341089941
209 2 16.7378852572 16.3678801315 -9.1341089941
210 2 16.7378852572 9.3530743609 -9.1341089941
211 2 10.7764466725 4.6765371804 -9.1341089941
212 2 10.7764466725 18.7061487217 -9.1341089941
213 2 10.7764466725 11.6913429511 -9.1341089941
214 2 4.8150080877 7.0148057707 -9.1341089941
215 2 4.8150080877 0.0000000000 -9.1341089941
216 2 4.8150080877 14.0296115413 -9.1341089941
217 2 15.1328825613 0.0000000000 -9.5312441677
218 2 15.1328825613 14.0296115413 -9.5312441677
219 2 15.1328825613 7.0148057707 -9.5312441677
220 2 9.1714439766 2.3382685902 -9.5312441677
221 2 9.1714439766 16.3678801315 -9.5312441677
222 2 9.1714439766 9.3530743609 -9.5312441677
223 2 3.2100053918 4.6765371804 -9.5312441677
224 2 3.2100053918 18.7061487217 -9.5312441677
225 2 3.2100053918 11.6913429511 -9.5312441677
226 2 13.5278798654 18.7061487217 -9.9283793414
227 2 13.5278798654 11.6913429511 -9.9283793414
228 2 13.5278798654 4.6765371804 -9.9283793414
229 2 7.5664412807 -0.0000000000 -9.9283793414
230 2 7.5664412807 14.0296115413 -9.9283793414
231 2 7.5664412807 7.0148057707 -9.9283793414
232 2 1.6050026959 2.3382685902 -9.9283793414
233 2 1.6050026959 16.3678801315 -9.9283793414
234 2 1.6050026959 9.3530743609 -9.9283793414
235 2 11.9228771695 16.3678801315 -10.3255145150
236 2 11.9228771695 9.3530743609 -10.3255145150
237 2 11.9228771695 2.3382685902 -10.3255145150
238 2 5.9614385848 18.7061487217 -10.3255145150
239 2 5.9614385848 11.6913429511 -10.3255145150
240 2 5.9614385848 4.6765371804 -10.3255145150
241 2 -0.0000000000 0.0000000000 -10.3255145150
242 2 17.8843157543 14.0296115413 -10.3255145150
243 2 17.8843157543 7.0148057707 -10.3255145150
244 2 10.3178744736 14.0296115413 -10.7226496887
245 2 10.3178744736 7.0148057707 -10.7226496887
246 2 10.3178744736 -0.0000000000 -10.7226496887
247 2 4.3564358889 16.3678801315 -10.7226496887
248 2 4.3564358889 9.3530743609 -10.7226496887
249 2 4.3564358889 2.3382685902 -10.7226496887
250 2 16.2793130584 18.7061487217 -10.7226496887
251 2 16.2793130584 11.6913429511 -10.7226496887
252 2 16.2793130584 4.6765371804 -10.7226496887
253 2 8.7128717777 11.6913429511 -11.1197848623
254 2 8.7128717777 4.6765371804 -11.1197848623
255 2 8.7128717777 18.7061487217 -11.1197848623
256 2 2.7514331930 14.0296115413 -11.1197848623
257 2 2.7514331930 7.0148057707 -11.1197848623
258 2 2.7514331930 -0.0000000000 -11.1197848623
259 2 14.6743103625 16.3678801315 -11.1197848623
260 2 14.6743103625 9.3530743609 -11.1197848623
261 2 14.6743103625 2.3382685902 -11.1197848623
262 2 7.1078690818 9.3530743609 -11.5169200360
263 2 7.1078690818 2.3382685902 -11.5169200360
264 2 7.1078690818 16.3678801315 -11.5169200360
265 2 1.1464304971 11.6913429511 -11.5169200360
266 2 1.1464304971 4.6765371804 -11.5169200360
267 2 1.1464304971 18.7061487217 -11.5169200360
268 2 13.0693076666 14.0296115413 -11.5169200360
269 2 13.0693076666 7.0148057707 -11.5169200360
270 2 13.0693076666 -0.0000000000 -11.5169200360
271 2 5.5028663859 7.0148057707 -11.9140552096
272 2 5.5028663859 0.0000000000 -11.9140552096
273 2 5.5028663859 14.0296115413 -11.9140552096
274 2 17.4257435555 9.3530743609 -11.9140552096
275 2 17.4257435555 2.3382685902 -11.9140552096
276 2 17.4257435555 16.3678801315 -11.9140552096
277 2 11.4643049707 11.6913429511 -11.9140552096
278 2 11.4643049707 4.6765371804 -11.9140552096
279 2 11.4643049707 18.7061487217 -11.9140552096
280 2 3.8978636900 4.6765371804 -12.3111903833
281 2 3.8978636900 18.7061487217 -12.3111903833
282 2 3.8978636900 11.6913429511 -12.3111903833
283 2 15.8207408596 7.0148057707 -12.3111903833
284 2 15.8207408596 -0.0000000000 -12.3111903833
285 2 15.8207408596 14.0296115413 -12.3111903833
286 2 9.8593022748 9.3530743609 -12.3111903833
287 2 9.8593022748 2.3382685902 -12.3111903833
288 2 9.8593022748 16.3678801315 -12.3111903833
289 2 2.2928609941 2.3382685902 -12.7083255570
290 2 2.2928609941 16.3678801315 -12.7083255570
291 2 2.2928609941 9.3530743609 -12.7083255570
292 2 14.2157381637 4.6765371804 -12.7083255570
293 2 14.2157381637 18.7061487217 -12.7083255570
294 2 14.2157381637 11.6913429511 -12.7083255570
295 2 8.2542995789 7.0148057707 -12.7083255570
296 2 8.2542995789 0.0000000000 -12.7083255570
297 2 8.2542995789 14.0296115413 -12.7083255570
298 2 0.6878582982 0.0000000000 -13.1054607306
299 2 0.6878582982 14.0296115413 -13.1054607306
300 2 0.6878582982 7.0148057707 -13.1054607306
301 2 12.6107354678 2.3382685902 -13.1054607306
302 2 12.6107354678 16.3678801315 -13.1054607306
303 2 12.6107354678 9.3530743609 -13.1054607306
304 2 6.6492968830 4.6765371804 -13.1054607306
305 2 6.6492968830 18.7061487217 -13.1054607306
306 2 6.6492968830 11.6913429511 -13.1054607306
307 2 16.9671713567 18.7061487217 -13.5025959043
308 2 16.9671713567 11.6913429511 -13.5025959043
309 2 16.9671713567 4.6765371804 -13.5025959043
310 2 11.0057327719 21.0444173120 -13.5025959043
311 2 11.0057327719 14.0296115413 -13.5025959043
312 2 11.0057327719 7.0148057707 -13.5025959043
313 2 5.0442941871 2.3382685902 -13.5025959043
314 2 5.0442941871 16.3678801315 -13.5025959043
315 2 5.0442941871 9.3530743609 -13.5025959043
316 2 15.3621686608 16.3678801315 -13.8997310779
317 2 15.3621686608 9.3530743609 -13.8997310779
318 2 15.3621686608 2.3382685902 -13.8997310779
319 2 9.4007300760 18.7061487217 -13.8997310779
320 2 9.4007300760 11.6913429511 -13.8997310779
321 2 9.4007300760 4.6765371804 -13.8997310779
322 2 3.4392914912 0.0000000000 -13.8997310779
323 2 3.4392914912 14.0296115413 -13.8997310779
324 2 3.4392914912 7.0148057707 -13.8997310779
325 2 13.7571659649 14.0296115413 -14.2968662516
326 2 13.7571659649 7.0148057707 -14.2968662516
327 2 13.7571659649 0.0000000000 -14.2968662516
328 2 7.7957273801 16.3678801315 -14.2968662516
329 2 7.7957273801 9.3530743609 -14.2968662516
330 2 7.7957273801 2.3382685902 -14.2968662516
331 2 1.8342887953 18.7061487217 -14.2968662516
332 2 1.8342887953 11.6913429511 -14.2968662516
333 2 1.8342887953 4.6765371804 -14.2968662516
334 2 12.1521632690 11.6913429511 -14.6940014252
335 2 12.1521632690 4.6765371804 -14.6940014252
336 2 12.1521632690 18.7061487217 -14.6940014252
337 2 6.1907246842 14.0296115413 -14.6940014252
338 2 6.1907246842 7.0148057707 -14.6940014252
339 2 6.1907246842 -0.0000000000 -14.6940014252
340 2 0.2292860994 16.3678801315 -14.6940014252
341 2 0.2292860994 9.3530743609 -14.6940014252
342 2 0.2292860994 2.3382685902 -14.6940014252
343 2 10.5471605731 9.3530743609 -15.0911365989
344 2 10.5471605731 2.3382685902 -15.0911365989
345 2 10.5471605731 16.3678801315 -15.0911365989
346 2 4.5857219883 11.6913429511 -15.0911365989
347 2 4.5857219883 4.6765371804 -15.0911365989
348 2 4.5857219883 18.7061487217 -15.0911365989
349 2 16.5085991578 14.0296115413 -15.0911365989
350 2 16.5085991578 7.0148057707 -15.0911365989
351 2 16.5085991578 0.0000000000 -15.0911365989
352 2 8.9421578772 7.0148057707 -15.4882717725
353 2 8.9421578772 0.0000000000 -15.4882717725
354 2 8.9421578772 14.0296115413 -15.4882717725
355 2 2.9807192924 9.3530743609 -15.4882717725
356 2 2.9807192924 2.3382685902 -15.4882717725
357 2 2.9807192924 16.3678801315 -15.4882717725
358 2 14.9035964619 11.6913429511 -15.4882717725
359 2 14.9035964619 4.6765371804 -15.4882717725
360 2 14.9035964619 18.7061487217 -15.4882717725
361 2 7.3371551813 4.6765371804 -15.8854069462
362 2 7.3371551813 18.7061487217 -15.8854069462
363 2 7.3371551813 11.6913429511 -15.8854069462
364 2 1.3757165965 7.0148057707 -15.8854069462
365 2 1.3757165965 0.0000000000 -15.8854069462
366 2 1.3757165965 14.0296115413 -15.8854069462
367 2 13.2985937660 9.3530743609 -15.8854069462
368 2 13.2985937660 2.3382685902 -15.8854069462
369 2 13.2985937660 16.3678801315 -15.8854069462
370 2 5.7321524854 2.3382685902 -16.2825421198
371 2 5.7321524854 16.3678801315 -16.2825421198
372 2 5.7321524854 9.3530743609 -16.2825421198
373 2 17.6550296549 4.6765371804 -16.2825421198
374 2 17.6550296549 18.7061487217 -16.2825421198
375 2 17.6550296549 11.6913429511 -16.2825421198
376 2 11.6935910701 7.0148057707 -16.2825421198
377 2 11.6935910701 0.0000000000 -16.2825421198
378 2 11.6935910701 14.0296115413 -16.2825421198
379 2 4.1271497895 0.0000000000 -16.6796772935
380 2 4.1271497895 14.0296115413 -16.6796772935
381 2 4.1271497895 7.0148057707 -16.6796772935
382 2 16.0500269590 2.3382685902 -16.6796772935
383 2 16.0500269590 16.3678801315 -16.6796772935
384 2 16.0500269590 9.3530743609 -16.6796772935
385 2 10.0885883742 4.6765371804 -16.6796772935
386 2 10.0885883742 18.7061487217 -16.6796772935
387 2 10.0885883742 11.6913429511 -16.6796772935
388 2 2.5221470936 18.7061487217 -17.0768124672
389 2 2.5221470936 11.6913429511 -17.0768124672
390 2 2.5221470936 4.6765371804 -17.0768124672
391 2 14.4450242631 0.0000000000 -17.0768124672
392 2 14.4450242631 14.0296115413 -17.0768124672
393 2 14.4450242631 7.0148057707 -17.0768124672
394 2 8.4835856783 2.3382685902 -17.0768124672
395 2 8.4835856783 16.3678801315 -17.0768124672
396 2 8.4835856783 9.3530743609 -17.0768124672
397 2 0.9171443977 16.3678801315 -17.4739476408
398 2 0.9171443977 9.3530743609 -17.4739476408
399 2 0.9171443977 2.3382685902 -17.4739476408
400 2 12.8400215672 18.7061487217 -17.4739476408
401 2 12.8400215672 11.6913429511 -17.4739476408
402 2 12.8400215672 4.6765371804 -17.4739476408
403 2 6.8785829824 0.0000000000 -17.4739476408
404 2 6.8785829824 14.0296115413 -17.4739476408
405 2 6.8785829824 7.0148057707 -17.4739476408
406 2 17.1964574561 14.0296115413 -17.8710828145
407 2 17.1964574561 7.0148057707 -17.8710828145
408 2 17.1964574561 -0.0000000000 -17.8710828145
409 2 11.2350188713 16.3678801315 -17.8710828145
410 2 11.2350188713 9.3530743609 -17.8710828145
411 2 11.2350188713 2.3382685902 -17.8710828145
412 2 5.2735802865 18.7061487217 -17.8710828145
413 2 5.2735802865 11.6913429511 -17.8710828145
414 2 5.2735802865 4.6765371804 -17.8710828145
415 2 15.5914547602 11.6913429511 -18.2682179881
416 2 15.5914547602 4.6765371804 -18.2682179881
417 2 15.5914547602 18.7061487217 -18.2682179881
418 2 9.6300161754 14.0296115413 -18.2682179881
419 2 9.6300161754 7.0148057707 -18.2682179881
420 2 9.6300161754 -0.0000000000 -18.2682179881
421 2 3.6685775906 16.3678801315 -18.2682179881
422 2 3.6685775906 9.3530743609 -18.2682179881
423 2 3.6685775906 2.3382685902 -18.2682179881
424 2 13.9864520643 9.3530743609 -18.6653531618
425 2 13.9864520643 2.3382685902 -18.6653531618
426 2 13.9864520643 16.3678801315 -18.6653531618
427 2 8.0250134795 11.6913429511 -18.6653531618
428 2 8.0250134795 4.6765371804 -18.6653531618
429 2 8.0250134795 18.7061487217 -18.6653531618
430 2 2.0635748947 14.0296115413 -18.6653531618
431 2 2.0635748947 7.0148057707 -18.6653531618
432 2 2.0635748947 -0.0000000000 -18.6653531618
433 2 12.3814493684 7.0148057707 -19.0624883354
434 2 12.3814493684 -0.0000000000 -19.0624883354
435 2 12.3814493684 14.0296115413 -19.0624883354
436 2 6.4200107836 9.3530743609 -19.0624883354
437 2 6.4200107836 2.3382685902 -19.0624883354
438 2 6.4200107836 16.3678801315 -19.0624883354
439 2 0.4585721988 11.6913429511 -19.0624883354
440 2 0.4585721988 4.6765371804 -19.0624883354
441 2 0.4585721988 18.7061487217 -19.0624883354
442 2 10.7764466725 4.6765371804 -19.4596235091
443 2 10.7764466725 18.7061487217 -19.4596235091
444 2 10.7764466725 11.6913429511 -19.4596235091
445 2 4.8150080877 7.0148057707 -19.4596235091
446 2 4.8150080877 -0.0000000000 -19.4596235091
447 2 4.8150080877 14.0296115413 -19.4596235091
448 2 16.7378852572 9.3530743609 -19.4596235091
449 2 16.7378852572 2.3382685902 -19.4596235091
450 2 16.7378852572 16.3678801315 -19.4596235091
451 2 9.1714439766 2.3382685902 -19.8567586827
452 2 9.1714439766 16.3678801315 -19.8567586827
453 2 9.1714439766 9.3530743609 -19.8567586827
454 2 3.2100053918 4.6765371804 -19.8567586827
455 2 3.2100053918 18.7061487217 -19.8567586827
456 2 3.2100053918 11.6913429511 -19.8567586827
457 2 15.1328825613 7.0148057707 -19.8567586827
458 2 15.1328825613 -0.0000000000 -19.8567586827
459 2 15.1328825613 14.0296115413 -19.8567586827
460 2 7.5664412807 -0.0000000000 -20.2538938564
461 2 7.5664412807 14.0296115413 -20.2538938564
462 2 7.5664412807 7.0148057707 -20.2538938564
463 2 1.6050026959 2.3382685902 -20.2538938564
464 2 1.6050026959 16.3678801315 -20.2538938564
465 2 1.6050026959 9.3530743609 -20.2538938564
466 2 13.5278798654 4.6765371804 -20.2538938564
467 2 13.5278798654 18.7061487217 -20.2538938564
468 2 13.5278798654 11.6913429511 -20.2538938564
469 2 5.9614385848 18.7061487217 -20.6510290301
470 2 5.9614385848 11.6913429511 -20.6510290301
471 2 5.9614385848 4.6765371804 -20.6510290301
472 2 17.8843157543 -0.0000000000 -20.6510290301
473 2 17.8843157543 14.0296115413 -20.6510290301
474 2 17.8843157543 7.0148057707 -20.6510290301
475 2 11.9228771695 2.3382685902 -20.6510290301
476 2 11.9228771695 16.3678801315 -20.6510290301
477 2 11.9228771695 9.3530743609 -20.6510290301
478 2 4.3564358889 16.3678801315 -21.0481642037
479 2 4.3564358889 9.3530743609 -21.0481642037
480 2 4.3564358889 2.3382685902 -21.0481642037
481 2 16.2793130584 18.7061487217 -21.0481642037
482 2 16.2793130584 11.6913429511 -21.0481642037
483 2 16.2793130584 4.6765371804 -21.0481642037
484 2 10.3178744736 -0.0000000000 -21.0481642037
485 2 10.3178744736 14.0296115413 -21.0481642037
486 2 10.3178744736 7.0148057707 -21.0481642037
487 2 2.7514331930 14.0296115413 -21.4452993774
488 2 2.7514331930 7.0148057707 -21.4452993774
489 2 2.7514331930 -0.0000000000 -21.4452993774
490 2 14.6743103625 16.3678801315 -21.4452993774
491 2 14.6743103625 9.3530743609 -21.4452993774
492 2 14.6743103625 2.3382685902 -21.4452993774
493 2 8.7128717777 18.7061487217 -21.4452993774
494 2 8.7128717777 11.6913429511 -21.4452993774
495 2 8.7128717777 4.6765371804 -21.4452993774
496 2 1.1464304971 11.6913429511 -21.8424345510
497 2 1.1464304971 4.6765371804 -21.8424345510
498 2 1.1464304971 18.7061487217 -21.8424345510
499 2 13.0693076666 14.0296115413 -21.8424345510
500 2 13.0693076666 7.0148057707 -21.8424345510
501 2 13.0693076666 -0.0000000000 -21.8424345510
502 2 7.1078690818 16.3678801315 -21.8424345510
503 2 7.1078690818 9.3530743609 -21.8424345510
504 2 7.1078690818 2.3382685902 -21.8424345510
505 2 17.4257435555 9.3530743609 -22.2395697247
506 2 17.4257435555 2.3382685902 -22.2395697247
507 2 17.4257435555 16.3678801315 -22.2395697247
508 2 11.4643049707 11.6913429511 -22.2395697247
509 2 11.4643049707 4.6765371804 -22.2395697247
510 2 11.4643049707 18.7061487217 -22.2395697247
511 2 5.5028663859 14.0296115413 -22.2395697247
512 2 5.5028663859 7.0148057707 -22.2395697247
513 2 5.5028663859 -0.0000000000 -22.2395697247
514 2 15.8207408596 7.0148057707 -22.6367048983
515 2 15.8207408596 -0.0000000000 -22.6367048983
516 2 15.8207408596 14.0296115413 -22.6367048983
517 2 9.8593022748 9.3530743609 -22.6367048983
518 2 9.8593022748 2.3382685902 -22.6367048983
519 2 9.8593022748 16.3678801315 -22.6367048983
520 2 3.8978636900 11.6913429511 -22.6367048983
521 2 3.8978636900 4.6765371804 -22.6367048983
522 2 3.8978636900 18.7061487217 -22.6367048983
523 2 14.2157381637 4.6765371804 -23.0338400720
524 2 14.2157381637 18.7061487217 -23.0338400720
525 2 14.2157381637 11.6913429511 -23.0338400720
526 2 8.2542995789 7.0148057707 -23.0338400720
527 2 8.2542995789 -0.0000000000 -23.0338400720
528 2 8.2542995789 14.0296115413 -23.0338400720
529 2 2.2928609941 9.3530743609 -23.0338400720
530 2 2.2928609941 2.3382685902 -23.0338400720
531 2 2.2928609941 16.3678801315 -23.0338400720
532 2 12.6107354678 2.3382685902 -23.4309752456
533 2 12.6107354678 16.3678801315 -23.4309752456
534 2 12.6107354678 9.3530743609 -23.4309752456
535 2 6.6492968830 4.6765371804 -23.4309752456
536 2 6.6492968830 18.7061487217 -23.4309752456
537 2 6.6492968830 11.6913429511 -23.4309752456
538 2 0.6878582982 7.0148057707 -23.4309752456
539 2 0.6878582982 0.0000000000 -23.4309752456
540 2 0.6878582982 14.0296115413 -23.4309752456
541 2 11.0057327719 0.0000000000 -23.8281104193
542 2 11.0057327719 14.0296115413 -23.8281104193
543 2 11.0057327719 7.0148057707 -23.8281104193
544 2 5.0442941871 2.3382685902 -23.8281104193
545 2 5.0442941871 16.3678801315 -23.8281104193
546 2 5.0442941871 9.3530743609 -23.8281104193
547 2 16.9671713567 4.6765371804 -23.8281104193
548 2 16.9671713567 18.7061487217 -23.8281104193
549 2 16.9671713567 11.6913429511 -23.8281104193
550 2 9.4007300760 18.7061487217 -24.2252455929
551 2 9.4007300760 11.6913429511 -24.2252455929
552 2 9.4007300760 4.6765371804 -24.2252455929
553 2 3.4392914912 21.0444173120 -24.2252455929
554 2 3.4392914912 14.0296115413 -24.2252455929
555 2 3.4392914912 7.0148057707 -24.2252455929
556 2 15.3621686608 2.3382685902 -24.2252455929
557 2 15.3621686608 16.3678801315 -24.2252455929
558 2 15.3621686608 9.3530743609 -24.2252455929
559 2 7.7957273801 16.3678801315 -24.6223807666
560 2 7.7957273801 9.3530743609 -24.6223807666
561 2 7.7957273801 2.3382685902 -24.6223807666
562 2 1.8342887953 18.7061487217 -24.6223807666
563 2 1.8342887953 11.6913429511 -24.6223807666
564 2 1.8342887953 4.6765371804 -24.6223807666
565 2 13.7571659649 -0.0000000000 -24.6223807666
566 2 13.7571659649 14.0296115413 -24.6223807666
567 2 13.7571659649 7.0148057707 -24.6223807666
568 2 6.1907246842 14.0296115413 -25.0195159403
569 2 6.1907246842 7.0148057707 -25.0195159403
570 2 6.1907246842 -0.0000000000 -25.0195159403
571 2 0.2292860994 16.3678801315 -25.0195159403
572 2 0.2292860994 9.3530743609 -25.0195159403
573 2 0.2292860994 2.3382685902 -25.0195159403
574 2 12.1521632690 18.7061487217 -25.0195159403
575 2 12.1521632690 11.6913429511 -25.0195159403
576 2 12.1521632690 4.6765371804 -25.0195159403
577 2 4.5857219883 11.6913429511 -25.4166511139
578 2 4.5857219883 4.6765371804 -25.4166511139
579 2 4.5857219883 18.7061487217 -25.4166511139
580 2 16.5085991578 14.0296115413 -25.4166511139
581 2 16.5085991578 7.0148057707 -25.4166511139
582 2 16.5085991578 -0.0000000000 -25.4166511139
583 2 10.5471605731 16.3678801315 -25.4166511139
584 2 10.5471605731 9.3530743609 -25.4166511139
585 2 10.5471605731 2.3382685902 -25.4166511139
586 2 2.9807192924 9.3530743609 -25.8137862876
587 2 2.9807192924 2.3382685902 -25.8137862876
588 2 2.9807192924 16.3678801315 -25.8137862876
589 2 14.9035964619 11.6913429511 -25.8137862876
590 2 14.9035964619 4.6765371804 -25.8137862876
591 2 14.9035964619 18.7061487217 -25.8137862876
592 2 8.9421578772 14.0296115413 -25.8137862876
593 2 8.9421578772 7.0148057707 -25.8137862876
594 2 8.9421578772 -0.0000000000 -25.8137862876
595 2 1.3757165965 7.0148057707 -26.2109214612
596 2 1.3757165965 -0.0000000000 -26.2109214612
597 2 1.3757165965 14.0296115413 -26.2109214612
598 2 13.2985937660 9.3530743609 -26.2109214612
599 2 13.2985937660 2.3382685902 -26.2109214612
600 2 13.2985937660 16.3678801315 -26.2109214612
601 2 7.3371551813 11.6913429511 -26.2109214612
602 2 7.3371551813 4.6765371804 -26.2109214612
603 2 7.3371551813 18.7061487217 -26.2109214612
604 2 17.6550296549 4.6765371804 -26.6080566349
605 2 17.6550296549 18.7061487217 -26.6080566349
606 2 17.6550296549 11.6913429511 -26.6080566349
607 2 11.6935910701 7.0148057707 -26.6080566349
608 2 11.6935910701 0.0000000000 -26.6080566349
609 2 11.6935910701 14.0296115413 -26.6080566349
610 2 5.7321524854 9.3530743609 -26.6080566349
611 2 5.7321524854 2.3382685902 -26.6080566349
612 2 5.7321524854 16.3678801315 -26.6080566349
613 2 16.0500269590 2.3382685902 -27.0051918085
614 2 16.0500269590 16.3678801315 -27.0051918085
615 2 16.0500269590 9.3530743609 -27.0051918085
616 2 10.0885883742 4.6765371804 -27.0051918085
617 2 10.0885883742 18.7061487217 -27.0051918085
618 2 10.0885883742 11.6913429511 -27.0051918085
619 2 4.1271497895 7.0148057707 -27.0051918085
620 2 4.1271497895 -0.0000000000 -27.0051918085
621 2 4.1271497895 14.0296115413 -27.0051918085
622 2 14.4450242631 -0.0000000000 -27.4023269822
623 2 14.4450242631 14.0296115413 -27.4023269822
624 2 14.4450242631 7.0148057707 -27.4023269822
625 2 8.4835856783 2.3382685902 -27.4023269822
626 2 8.4835856783 16.3678801315 -27.4023269822
627 2 8.4835856783 9.3530743609 -27.4023269822
628 2 2.5221470936 4.6765371804 -27.4023269822