ITEM: TIMESTEP
0
ITEM: NUMBER OF ATOMS
5765
ITEM: BOX BOUNDS xy xz yz pp pp ff
-7.333395429443994 22.3668560598042 -7.333395429443994
0.0 21.130488907628457 0.0
-101.25 101.25 0.0
ITEM: ATOMS id type x y z
1 2 8.8000745153 4.9947105669 -101.2708758967
2 2 13.0167768873 2.3828268883 -101.2357368002
3 2 9.9000838298 20.9014321173 -101.2005977038
4 2 14.1167862017 18.2895484387 -101.1654586074
5 2 -4.0333674862 15.6776647601 -101.1303195110
6 2 0.1833348857 13.0657810816 -101.0951804145
7 2 4.4000372577 10.4538974030 -101.0600413181
8 2 8.6167396296 7.8420137244 -101.0249022217
9 2 12.8334420015 5.2301300458 -100.9897631253
10 2 17.0501443735 2.6182463672 -100.9546240288
11 2 21.2668467454 0.0063626886 -100.9194849324
12 2 -4.2167023719 18.5249679177 -100.8843458360
13 2 0.0000000000 15.9130842391 -100.8492067396
14 2 4.2167023719 13.3012005605 -100.8140676431
15 2 8.4334047439 10.6893168819 -100.7789285467
16 2 12.6501071158 8.0774332033 -100.7437894503
17 2 16.8668094877 5.4655495247 -100.7086503539
18 2 21.0835118597 2.8536658462 -100.6735112574
19 2 2.9333581718 0.2417821676 -100.6383721610
20 2 -0.1833348857 18.7603873966 -100.6032330646
21 2 4.0333674862 16.1485037180 -100.5680939682
22 2 8.2500698581 13.5366200394 -100.5329548717
23 2 12.4667722301 10.9247363609 -100.4978157753
24 2 16.6834746020 8.3128526823 -100.4626766789
25 2 -1.4666790859 5.7009690037 -100.4275375825
26 2 2.7500232860 3.0890853251 -100.3923984860
27 2 6.9667256580 0.4772016465 -100.3572593896
28 2 3.8500326005 18.9958068756 -100.3221202932
29 2 8.0667349724 16.3839231970 -100.2869811968
30 2 12.2834373443 13.7720395184 -100.2518421003
31 2 16.5001397163 11.1601558398 -100.2167030039
32 2 -1.6500139716 8.5482721612 -100.1815639075
33 2 2.5666884003 5.9363884826 -100.1464248111
34 2 6.7833907722 3.3245048041 -100.1112857146
35 2 11.0000931442 0.7126211255 -100.0761466182
36 2 7.8834000867 19.2312263545 -100.0410075218
37 2 12.1001024586 16.6193426759 -100.0058684254
38 2 16.3168048305 14.0074589973 -99.9707293289
39 2 -1.8333488574 11.3955753188 -99.9355902325
40 2 2.3833535146 8.7836916402 -99.9004511361
41 2 6.6000558865 6.1718079616 -99.8653120397
42 2 10.8167582584 3.5599242830 -99.8301729432
43 2 15.0334606304 0.9480406044 -99.7950338468
44 2 11.9167675728 19.4666458335 -99.7598947504
45 2 16.1334699448 16.8547621549 -99.7247556540
46 2 -2.0166837431 14.2428784763 -99.6896165575
47 2 2.2000186288 11.6309947977 -99.6544774611
48 2 6.4167210008 9.0191111191 -99.6193383647
49 2 10.6334233727 6.4072274405 -99.5841992683
50 2 14.8501257446 3.7953437619 -99.5490601718
51 2 19.0668281166 1.1834600834 -99.5139210754
52 2 -6.4167210008 19.7020653124 -99.4787819790
53 2 -2.2000186288 17.0901816338 -99.4436428826
54 2 2.0166837431 14.4782979552 -99.4085037861
55 2 6.2333861150 11.8664142766 -99.3733646897
56 2 10.4500884870 9.2545305981 -99.3382255933
57 2 14.6667908589 6.6426469195 -99.3030864969
58 2 18.8834932308 4.0307632409 -99.2679474004
59 2 0.7333395429 1.4188795623 -99.2328083040
60 2 -2.3833535146 19.9374847914 -99.1976692076
61 2 1.8333488574 17.3256011128 -99.1625301112
62 2 6.0500512293 14.7137174342 -99.1273910147
63 2 10.2667536012 12.1018337556 -99.0922519183
64 2 14.4834559732 9.4899500770 -99.0571128219
65 2 18.7001583451 6.8780663984 -99.0219737255
66 2 0.5500046572 4.2661827198 -98.9868346290
67 2 4.7667070291 1.6542990413 -98.9516955326
68 2 1.6500139716 20.1729042703 -98.9165564362
69 2 5.8667163436 17.5610205917 -98.8814173398
70 2 10.0834187155 14.9491369131 -98.8462782433
71 2 14.3001210874 12.3372532345 -98.8111391469
72 2 18.5168234593 9.7253695560 -98.7760000505
73 2 0.3666697715 7.1134858774 -98.7408609541
74 2 4.5833721434 4.5016021988 -98.7057218576
75 2 8.8000745153 1.8897185202 -98.6705827612
76 2 5.6833814578 20.4083237492 -98.6354436648
77 2 9.9000838297 17.7964400707 -98.6003045684
78 2 14.1167862017 15.1845563921 -98.5651654719
79 2 -4.0333674862 12.5726727135 -98.5300263755
80 2 0.1833348857 9.9607890349 -98.4948872791
81 2 4.4000372577 7.3489053563 -98.4597481827
82 2 8.6167396296 4.7370216777 -98.4246090862
83 2 12.8334420015 2.1251379991 -98.3894699898
84 2 9.7167489440 20.6437432282 -98.3543308934
85 2 13.9334513159 18.0318595496 -98.3191917970
86 2 -4.2167023719 15.4199758710 -98.2840527005
87 2 0.0000000000 12.8080921924 -98.2489136041
88 2 4.2167023719 10.1962085139 -98.2137745077
89 2 8.4334047439 7.5843248353 -98.1786354113
90 2 12.6501071158 4.9724411567 -98.1434963148
91 2 16.8668094877 2.3605574781 -98.1083572184
92 2 13.7501164302 20.8791627071 -98.0732181220
93 2 -4.4000372577 18.2672790286 -98.0380790256
94 2 -0.1833348857 15.6553953500 -98.0029399291
95 2 4.0333674862 13.0435116714 -97.9678008327
96 2 8.2500698581 10.4316279928 -97.9326617363
97 2 12.4667722301 7.8197443142 -97.8975226399
98 2 16.6834746020 5.2078606356 -97.8623835435
99 2 20.9001769739 2.5959769570 -97.8272444470
100 2 -4.5833721434 21.1145821861 -97.7921053506
101 2 -0.3666697715 18.5026985075 -97.7569662542
102 2 3.8500326005 15.8908148289 -97.7218271578
103 2 8.0667349724 13.2789311503 -97.6866880613
104 2 12.2834373443 10.6670474717 -97.6515489649
105 2 16.5001397162 8.0551637932 -97.6164098685
106 2 -1.6500139716 5.4432801146 -97.5812707721
107 2 2.5666884003 2.8313964360 -97.5461316756
108 2 6.7833907722 0.2195127574 -97.5109925792
109 2 3.6666977147 18.7381179864 -97.4758534828
110 2 7.8834000867 16.1262343079 -97.4407143864
111 2 12.1001024586 13.5143506293 -97.4055752899
112 2 16.3168048305 10.9024669507 -97.3704361935
113 2 -1.8333488574 8.2905832721 -97.3352970971
114 2 2.3833535146 5.6786995935 -97.3001580007
115 2 6.6000558865 3.0668159149 -97.2650189042
116 2 10.8167582584 0.4549322364 -97.2298798078
117 2 7.7000652009 18.9735374654 -97.1947407114
118 2 11.9167675728 16.3616537868 -97.1596016150
119 2 16.1334699448 13.7497701082 -97.1244625185
120 2 -2.0166837431 11.1378864296 -97.0893234221
121 2 2.2000186288 8.5260027511 -97.0541843257
122 2 6.4167210008 5.9141190725 -97.0190452293
123 2 10.6334233727 3.3022353939 -96.9839061328
124 2 14.8501257446 0.6903517153 -96.9487670364
125 2 11.7334326871 19.2089569443 -96.9136279400
126 2 15.9501350590 16.5970732658 -96.8784888436
127 2 -2.2000186288 13.9851895872 -96.8433497471
128 2 2.0166837431 11.3733059086 -96.8082106507
129 2 6.2333861150 8.7614222300 -96.7730715543
130 2 10.4500884870 6.1495385514 -96.7379324579
131 2 14.6667908589 3.5376548728 -96.7027933614
132 2 18.8834932308 0.9257711942 -96.6676542650
133 2 -6.6000558865 19.4443764233 -96.6325151686
134 2 -2.3833535146 16.8324927447 -96.5973760722
135 2 1.8333488574 14.2206090661 -96.5622369757
136 2 6.0500512293 11.6087253875 -96.5270978793
137 2 10.2667536012 8.9968417089 -96.4919587829
138 2 14.4834559732 6.3849580304 -96.4568196865
139 2 18.7001583451 3.7730743518 -96.4216805900
140 2 0.5500046572 1.1611906732 -96.3865414936
141 2 -2.5666884003 19.6797959022 -96.3514023972
142 2 1.6500139716 17.0679122237 -96.3162633008
143 2 5.8667163436 14.4560285451 -96.2811242043
144 2 10.0834187155 11.8441448665 -96.2459851079
145 2 14.3001210874 9.2322611879 -96.2108460115
146 2 18.5168234593 6.6203775093 -96.1757069151
147 2 0.3666697715 4.0084938307 -96.1405678186
148 2 4.5833721434 1.3966101521 -96.1054287222
149 2 1.4666790859 19.9152153812 -96.0702896258
150 2 5.6833814578 17.3033317026 -96.0351505294
151 2 9.9000838298 14.6914480240 -96.0000114329
152 2 14.1167862017 12.0795643454 -95.9648723365
153 2 18.3334885736 9.4676806668 -95.9297332401
154 2 0.1833348857 6.8557969883 -95.8945941437
155 2 4.4000372577 4.2439133097 -95.8594550472
156 2 8.6167396296 1.6320296311 -95.8243159508
157 2 5.5000465721 20.1506348601 -95.7891768544
158 2 9.7167489440 17.5387511815 -95.7540377580
159 2 13.9334513159 14.9268675030 -95.7188986615
160 2 -4.2167023719 12.3149838244 -95.6837595651
161 2 0.0000000000 9.7031001458 -95.6486204687
162 2 4.2167023719 7.0912164672 -95.6134813723
163 2 8.4334047439 4.4793327886 -95.5783422758
164 2 12.6501071158 1.8674491100 -95.5432031794
165 2 9.5334140583 20.3860543391 -95.5080640830
166 2 13.7501164302 17.7741706605 -95.4729249866
167 2 -4.4000372577 15.1622869819 -95.4377858901
168 2 -0.1833348857 12.5504033033 -95.4026467937
169 2 4.0333674862 9.9385196247 -95.3675076973
170 2 8.2500698581 7.3266359461 -95.3323686009
171 2 12.4667722301 4.7147522676 -95.2972295044
172 2 16.6834746020 2.1028685890 -95.2620904080
173 2 13.5667815445 20.6214738180 -95.2269513116
174 2 -4.5833721434 18.0095901394 -95.1918122152
175 2 -0.3666697715 15.3977064609 -95.1566731187
176 2 3.8500326005 12.7858227823 -95.1215340223
177 2 8.0667349724 10.1739391037 -95.0863949259
178 2 12.2834373443 7.5620554251 -95.0512558295
179 2 16.5001397162 4.9501717465 -95.0161167330
180 2 20.7168420882 2.3382880679 -94.9809776366
181 2 -4.7667070291 20.8568932970 -94.9458385402
182 2 -0.5500046572 18.2450096184 -94.9106994438
183 2 3.6666977147 15.6331259398 -94.8755603473
184 2 7.8834000867 13.0212422612 -94.8404212509
185 2 12.1001024586 10.4093585826 -94.8052821545
186 2 16.3168048305 7.7974749040 -94.7701430581
187 2 20.5335072024 5.1855912255 -94.7350039616
188 2 2.3833535146 2.5737075469 -94.6998648652
189 2 -0.7333395429 21.0923127759 -94.6647257688
190 2 3.4833628290 18.4804290973 -94.6295866724
191 2 7.7000652009 15.8685454187 -94.5944475759
192 2 11.9167675728 13.2566617402 -94.5593084795
193 2 16.1334699448 10.6447780616 -94.5241693831
194 2 -2.0166837431 8.0328943830 -94.4890302867
195 2 2.2000186288 5.4210107044 -94.4538911902
196 2 6.4167210008 2.8091270258 -94.4187520938
197 2 10.6334233727 0.1972433472 -94.3836129974
198 2 7.5167303152 18.7158485763 -94.3484739010
199 2 11.7334326871 16.1039648977 -94.3133348045
200 2 15.9501350590 13.4920812191 -94.2781957081
201 2 -2.2000186288 10.8801975405 -94.2430566117
202 2 2.0166837431 8.2683138619 -94.2079175153
203 2 6.2333861150 5.6564301834 -94.1727784188
204 2 10.4500884870 3.0445465048 -94.1376393224
205 2 14.6667908589 0.4326628262 -94.1025002260
206 2 11.5500978014 18.9512680552 -94.0673611296
207 2 15.7668001733 16.3393843766 -94.0322220331
208 2 -2.3833535146 13.7275006981 -93.9970829367
209 2 1.8333488574 11.1156170195 -93.9619438403
210 2 6.0500512293 8.5037333409 -93.9268047439
211 2 10.2667536012 5.8918496623 -93.8916656474
212 2 14.4834559732 3.2799659837 -93.8565265510
213 2 18.7001583451 0.6680823051 -93.8213874546
214 2 15.5834652876 19.1866875342 -93.7862483582
215 2 -2.5666884003 16.5748038556 -93.7511092617
216 2 1.6500139716 13.9629201770 -93.7159701653
217 2 5.8667163436 11.3510364984 -93.6808310689
218 2 10.0834187155 8.7391528198 -93.6456919725
219 2 14.3001210874 6.1272691412 -93.6105528760
220 2 18.5168234593 3.5153854627 -93.5754137796
221 2 0.3666697715 0.9035017841 -93.5402746832
222 2 -2.7500232860 19.4221070131 -93.5051355868
223 2 1.4666790859 16.8102233345 -93.4699964903
224 2 5.6833814578 14.1983396559 -93.4348573939
225 2 9.9000838298 11.5864559774 -93.3997182975
226 2 14.1167862017 8.9745722988 -93.3645792011
227 2 18.3334885736 6.3626886202 -93.3294401046
228 2 0.1833348857 3.7508049416 -93.2943010082
229 2 4.4000372577 1.1389212630 -93.2591619118
230 2 1.2833442002 19.6575264921 -93.2240228154
231 2 5.5000465721 17.0456428135 -93.1888837189
232 2 9.7167489440 14.4337591349 -93.1537446225
233 2 13.9334513159 11.8218754563 -93.1186055261
234 2 18.1501536879 9.2099917777 -93.0834664297
235 2 0.0000000000 6.5981080991 -93.0483273332
236 2 4.2167023719 3.9862244206 -93.0131882368
237 2 8.4334047439 1.3743407420 -92.9780491404
238 2 5.3167116863 19.8929459710 -92.9429100440
239 2 9.5334140583 17.2810622924 -92.9077709475
240 2 13.7501164302 14.6691786138 -92.8726318511
241 2 17.9668188021 12.0572949353 -92.8374927547
242 2 -0.1833348857 9.4454112567 -92.8023536583
243 2 4.0333674862 6.8335275781 -92.7672145618
244 2 8.2500698581 4.2216438995 -92.7320754654
245 2 12.4667722301 1.6097602209 -92.6969363690
246 2 9.3500791725 20.1283654500 -92.6617972726
247 2 13.5667815445 17.5164817714 -92.6266581761
248 2 -4.5833721434 14.9045980928 -92.5915190797
249 2 -0.3666697715 12.2927144142 -92.5563799833
250 2 3.8500326005 9.6808307356 -92.5212408869
251 2 8.0667349724 7.0689470570 -92.4861017904
252 2 12.2834373443 4.4570633784 -92.4509626940
253 2 16.5001397163 1.8451796999 -92.4158235976
254 2 13.3834466587 20.3637849289 -92.3806845012
255 2 -4.7667070291 17.7519012503 -92.3455454047
256 2 -0.5500046572 15.1400175717 -92.3104063083
257 2 3.6666977147 12.5281338931 -92.2752672119
258 2 7.8834000867 9.9162502146 -92.2401281155
259 2 12.1001024586 7.3043665360 -92.2049890190
260 2 16.3168048305 4.6924828574 -92.1698499226
261 2 20.5335072024 2.0805991788 -92.1347108262
262 2 -4.9500419149 20.5992044079 -92.0995717298
263 2 -0.7333395429 17.9873207293 -92.0644326333
264 2 3.4833628290 15.3754370507 -92.0292935369
265 2 7.7000652009 12.7635533721 -91.9941544405
266 2 11.9167675728 10.1516696935 -91.9590153441
267 2 16.1334699448 7.5397860149 -91.9238762476
268 2 20.3501723167 4.9279023363 -91.8887371512
269 2 2.2000186288 2.3160186578 -91.8535980548
270 2 -0.9166744287 20.8346238868 -91.8184589584
271 2 3.3000279433 18.2227402082 -91.7833198619
272 2 7.5167303152 15.6108565296 -91.7481807655
273 2 11.7334326871 12.9989728510 -91.7130416691
274 2 15.9501350590 10.3870891725 -91.6779025727
275 2 -2.2000186288 7.7752054939 -91.6427634762
276 2 2.0166837431 5.1633218153 -91.6076243798
277 2 6.2333861150 2.5514381367 -91.5724852834
278 2 3.1166930575 21.0700433657 -91.5373461870
279 2 7.3333954294 18.4581596872 -91.5022070905
280 2 11.5500978014 15.8462760086 -91.4670679941
281 2 15.7668001733 13.2343923300 -91.4319288977
282 2 -2.3833535146 10.6225086514 -91.3967898013
283 2 1.8333488574 8.0106249728 -91.3616507048
284 2 6.0500512293 5.3987412942 -91.3265116084
285 2 10.2667536012 2.7868576156 -91.2913725120
286 2 14.4834559732 0.1749739371 -91.2562334156
287 2 11.3667629156 18.6935791661 -91.2210943191
288 2 15.5834652876 16.0816954875 -91.1859552227
289 2 -2.5666884003 13.4698118089 -91.1508161263
290 2 1.6500139716 10.8579281304 -91.1156770299
291 2 5.8667163436 8.2460444518 -91.0805379334
292 2 10.0834187155 5.6341607732 -91.0453988370
293 2 14.3001210874 3.0222770946 -91.0102597406
294 2 18.5168234593 0.4103934160 -90.9751206442
295 2 15.4001304018 18.9289986451 -90.9399815477
296 2 -2.7500232860 16.3171149665 -90.9048424513
297 2 1.4666790859 13.7052312879 -90.8697033549
298 2 5.6833814578 11.0933476093 -90.8345642585
299 2 9.9000838298 8.4814639307 -90.7994251620
300 2 14.1167862017 5.8695802521 -90.7642860656
301 2 18.3334885736 3.2576965735 -90.7291469692
302 2 0.1833348857 0.6458128950 -90.6940078728
303 2 -2.9333581718 19.1644181240 -90.6588687763
304 2 1.2833442002 16.5525344454 -90.6237296799
305 2 5.5000465721 13.9406507668 -90.5885905835
306 2 9.7167489440 11.3287670882 -90.5534514871
307 2 13.9334513159 8.7168834097 -90.5183123906
308 2 18.1501536879 6.1049997311 -90.4831732942
309 2 0.0000000000 3.4931160525 -90.4480341978
310 2 4.2167023719 0.8812323739 -90.4128951014
311 2 1.1000093144 19.3998376029 -90.3777560049
312 2 5.3167116863 16.7879539244 -90.3426169085
313 2 9.5334140583 14.1760702458 -90.3074778121
314 2 13.7501164302 11.5641865672 -90.2723387157
315 2 17.9668188021 8.9523028886 -90.2371996192
316 2 -0.1833348857 6.3404192100 -90.2020605228
317 2 4.0333674862 3.7285355314 -90.1669214264
318 2 8.2500698581 1.1166518528 -90.1317823300
319 2 5.1333768006 19.6352570819 -90.0966432335
320 2 9.3500791725 17.0233734033 -90.0615041371
321 2 13.5667815445 14.4114897247 -90.0263650407
322 2 17.7834839164 11.7996060461 -89.9912259443
323 2 -0.3666697715 9.1877223676 -89.9560868478
324 2 3.8500326005 6.5758386890 -89.9209477514
325 2 8.0667349724 3.9639550104 -89.8858086550
326 2 12.2834373443 1.3520713318 -89.8506695586
327 2 9.1667442868 19.8706765608 -89.8155304621
328 2 13.3834466587 17.2587928823 -89.7803913657
329 2 -4.7667070291 14.6469092037 -89.7452522693
330 2 -0.5500046572 12.0350255251 -89.7101131729
331 2 3.6666977147 9.4231418465 -89.6749740764
332 2 7.8834000867 6.8112581679 -89.6398349800
333 2 12.1001024586 4.1993744893 -89.6046958836
334 2 16.3168048305 1.5874908107 -89.5695567872
335 2 13.2001117730 20.1060960398 -89.5344176907
336 2 -4.9500419149 17.4942123612 -89.4992785943
337 2 -0.7333395429 14.8823286826 -89.4641394979
338 2 3.4833628290 12.2704450040 -89.4290004015
339 2 7.7000652009 9.6585613254 -89.3938613050
340 2 11.9167675728 7.0466776469 -89.3587222086
341 2 16.1334699448 4.4347939683 -89.3235831122
342 2 20.3501723167 1.8229102897 -89.2884440158
343 2 -5.1333768006 20.3415155187 -89.2533049193
344 2 -0.9166744287 17.7296318401 -89.2181658229
345 2 3.3000279433 15.1177481616 -89.1830267265
346 2 7.5167303152 12.5058644830 -89.1478876301
347 2 11.7334326871 9.8939808044 -89.1127485336
348 2 15.9501350590 7.2820971258 -89.0776094372
349 2 20.1668374310 4.6702134472 -89.0424703408
350 2 2.0166837431 2.0583297686 -89.0073312444
351 2 -1.1000093144 20.5769349977 -88.9721921479
352 2 3.1166930575 17.9650513191 -88.9370530515
353 2 7.3333954294 15.3531676405 -88.9019139551
354 2 11.5500978014 12.7412839619 -88.8667748587
355 2 15.7668001733 10.1294002833 -88.8316357622
356 2 -2.3833535146 7.5175166048 -88.7964966658
357 2 1.8333488574 4.9056329262 -88.7613575694
358 2 6.0500512293 2.2937492476 -88.7262184730
359 2 2.9333581718 20.8123544766 -88.6910793765
360 2 7.1500605437 18.2004707980 -88.6559402801
361 2 11.3667629156 15.5885871195 -88.6208011837
362 2 15.5834652876 12.9767034409 -88.5856620873
363 2 -2.5666884003 10.3648197623 -88.5505229908
364 2 1.6500139716 7.7529360837 -88.5153838944
365 2 5.8667163436 5.1410524051 -88.4802447980
366 2 10.0834187155 2.5291687265 -88.4451057016
367 2 6.9667256580 21.0477739556 -88.4099666051
368 2 11.1834280299 18.4358902770 -88.3748275087
369 2 15.4001304018 15.8240065984 -88.3396884123
370 2 -2.7500232860 13.2121229198 -88.3045493159
371 2 1.4666790859 10.6002392412 -88.2694102194
372 2 5.6833814578 7.9883555626 -88.2342711230
373 2 9.9000838297 5.3764718841 -88.1991320266
374 2 14.1167862017 2.7645882055 -88.1639929302
375 2 18.3334885736 0.1527045269 -88.1288538337
376 2 15.2167955161 18.6713097559 -88.0937147373
377 2 -2.9333581718 16.0594260774 -88.0585756409
378 2 1.2833442002 13.4475423988 -88.0234365445
379 2 5.5000465721 10.8356587202 -87.9882974480
380 2 9.7167489440 8.2237750416 -87.9531583516
381 2 13.9334513159 5.6118913630 -87.9180192552
382 2 18.1501536879 3.0000076844 -87.8828801588
383 2 0.0000000000 0.3881240058 -87.8477410623
384 2 -3.1166930575 18.9067292349 -87.8126019659
385 2 1.1000093144 16.2948455563 -87.7774628695
386 2 5.3167116863 13.6829618777 -87.7423237731
387 2 9.5334140583 11.0710781991 -87.7071846766
388 2 13.7501164302 8.4591945205 -87.6720455802
389 2 17.9668188021 5.8473108420 -87.6369064838
390 2 -0.1833348857 3.2354271634 -87.6017673874
391 2 4.0333674862 0.6235434848 -87.5666282909
392 2 0.9166744287 19.1421487138 -87.5314891945
393 2 5.1333768006 16.5302650352 -87.4963500981
394 2 9.3500791725 13.9183813567 -87.4612110017
395 2 13.5667815445 11.3064976781 -87.4260719052
396 2 17.7834839164 8.6946139995 -87.3909328088
397 2 -0.3666697715 6.0827303209 -87.3557937124
398 2 3.8500326005 3.4708466423 -87.3206546160
399 2 8.0667349724 0.8589629637 -87.2855155195
400 2 4.9500419149 19.3775681928 -87.2503764231
401 2 9.1667442868 16.7656845142 -87.2152373267
402 2 13.3834466587 14.1538008356 -87.1800982303
403 2 17.6001490307 11.5419171570 -87.1449591338
404 2 -0.5500046572 8.9300334784 -87.1098200374
405 2 3.6666977147 6.3181497998 -87.0746809410
406 2 7.8834000867 3.7062661213 -87.0395418446
407 2 12.1001024586 1.0943824427 -87.0044027481
408 2 8.9834094011 19.6129876717 -86.9692636517
409 2 13.2001117730 17.0011039931 -86.9341245553
410 2 -4.9500419149 14.3892203146 -86.8989854589
411 2 -0.7333395429 11.7773366360 -86.8638463624
412 2 3.4833628290 9.1654529574 -86.8287072660
413 2 7.7000652009 6.5535692788 -86.7935681696
414 2 11.9167675728 3.9416856002 -86.7584290732
415 2 16.1334699448 1.3298019216 -86.7232899767
416 2 13.0167768873 19.8484071507 -86.6881508803
417 2 -5.1333768006 17.2365234721 -86.6530117839
418 2 -0.9166744287 14.6246397935 -86.6178726875
419 2 3.3000279433 12.0127561149 -86.5827335910
420 2 7.5167303152 9.4008724363 -86.5475944946
421 2 11.7334326871 6.7889887577 -86.5124553982
422 2 15.9501350590 4.1771050792 -86.4773163018
423 2 20.1668374310 1.5652214006 -86.4421772053
424 2 -5.3167116863 20.0838266296 -86.4070381089
425 2 -1.1000093144 17.4719429510 -86.3718990125
426 2 3.1166930575 14.8600592724 -86.3367599161
427 2 7.3333954294 12.2481755939 -86.3016208196
428 2 11.5500978014 9.6362919153 -86.2664817232
429 2 15.7668001733 7.0244082367 -86.2313426268
430 2 19.9835025452 4.4125245581 -86.1962035304
431 2 1.8333488574 1.8006408795 -86.1610644339
432 2 -1.2833442002 20.3192461086 -86.1259253375
433 2 2.9333581718 17.7073624300 -86.0907862411
434 2 7.1500605437 15.0954787514 -86.0556471447
435 2 11.3667629156 12.4835950728 -86.0205080482
436 2 15.5834652876 9.8717113942 -85.9853689518
437 2 19.8001676595 7.2598277156 -85.9502298554
438 2 1.6500139716 4.6479440371 -85.9150907590
439 2 5.8667163436 2.0360603585 -85.8799516625
440 2 2.7500232860 20.5546655875 -85.8448125661
441 2 6.9667256580 17.9427819089 -85.8096734697
442 2 11.1834280299 15.3308982303 -85.7745343733
443 2 15.4001304018 12.7190145518 -85.7393952768
444 2 -2.7500232860 10.1071308732 -85.7042561804
445 2 1.4666790859 7.4952471946 -85.6691170840
446 2 5.6833814578 4.8833635160 -85.6339779876
447 2 9.9000838298 2.2714798374 -85.5988388911
448 2 6.7833907722 20.7900850665 -85.5636997947
449 2 11.0000931442 18.1782013879 -85.5285606983
450 2 15.2167955161 15.5663177093 -85.4934216019
451 2 -2.9333581718 12.9544340307 -85.4582825054
452 2 1.2833442002 10.3425503521 -85.4231434090
453 2 5.5000465721 7.7306666735 -85.3880043126
454 2 9.7167489440 5.1187829949 -85.3528652162
455 2 13.9334513159 2.5068993164 -85.3177261197
456 2 10.8167582584 21.0255045454 -85.2825870233
457 2 15.0334606304 18.4136208668 -85.2474479269
458 2 -3.1166930575 15.8017371882 -85.2123088305
459 2 1.1000093144 13.1898535096 -85.1771697340
460 2 5.3167116863 10.5779698311 -85.1420306376
461 2 9.5334140583 7.9660861525 -85.1068915412
462 2 13.7501164302 5.3542024739 -85.0717524448
463 2 17.9668188021 2.7423187953 -85.0366133483
464 2 22.1835211741 0.1304351167 -85.0014742519
465 2 -3.3000279433 18.6490403458 -84.9663351555
466 2 0.9166744287 16.0371566672 -84.9311960591
467 2 5.1333768006 13.4252729886 -84.8960569626
468 2 9.3500791725 10.8133893100 -84.8609178662
469 2 13.5667815445 8.2015056314 -84.8257787698
470 2 17.7834839164 5.5896219528 -84.7906396734
471 2 -0.3666697715 2.9777382743 -84.7555005769
472 2 3.8500326005 0.3658545957 -84.7203614805
473 2 0.7333395429 18.8844598247 -84.6852223841
474 2 4.9500419149 16.2725761461 -84.6500832877
475 2 9.1667442868 13.6606924675 -84.6149441912
476 2 13.3834466587 11.0488087890 -84.5798050948
477 2 17.6001490307 8.4369251104 -84.5446659984
478 2 -0.5500046572 5.8250414318 -84.5095269020
479 2 3.6666977147 3.2131577532 -84.4743878055
480 2 7.8834000867 0.6012740746 -84.4392487091
481 2 4.7667070291 19.1198793037 -84.4041096127
482 2 8.9834094011 16.5079956251 -84.3689705163
483 2 13.2001117730 13.8961119465 -84.3338314198
484 2 17.4168141449 11.2842282679 -84.2986923234
485 2 -0.7333395429 8.6723445893 -84.2635532270
486 2 3.4833628290 6.0604609107 -84.2284141306
487 2 7.7000652009 3.4485772321 -84.1932750341
488 2 11.9167675728 0.8366935536 -84.1581359377
489 2 8.8000745153 19.3552987826 -84.1229968413
490 2 13.0167768873 16.7434151040 -84.0878577449
491 2 17.2334792592 14.1315314254 -84.0527186484
492 2 -0.9166744287 11.5196477468 -84.0175795520
493 2 3.3000279433 8.9077640683 -83.9824404556
494 2 7.5167303152 6.2958803897 -83.9473013592
495 2 11.7334326871 3.6839967111 -83.9121622627
496 2 15.9501350590 1.0721130325 -83.8770231663
497 2 12.8334420015 19.5907182616 -83.8418840699
498 2 -5.3167116863 16.9788345830 -83.8067449735
499 2 -1.1000093144 14.3669509044 -83.7716058771
500 2 3.1166930575 11.7550672258 -83.7364667806
501 2 7.3333954294 9.1431835472 -83.7013276842
502 2 11.5500978014 6.5312998686 -83.6661885878
503 2 15.7668001733 3.9194161900 -83.6310494914
504 2 19.9835025452 1.3075325115 -83.5959103949
505 2 -5.5000465721 19.8261377405 -83.5607712985
506 2 -1.2833442002 17.2142540619 -83.5256322021
507 2 2.9333581718 14.6023703833 -83.4904931057
508 2 7.1500605437 11.9904867047 -83.4553540092
509 2 11.3667629156 9.3786030262 -83.4202149128
510 2 15.5834652876 6.7667193476 -83.3850758164
511 2 19.8001676595 4.1548356690 -83.3499367200
512 2 1.6500139716 1.5429519904 -83.3147976235
513 2 -1.4666790859 20.0615572194 -83.2796585271
514 2 2.7500232860 17.4496735409 -83.2445194307
515 2 6.9667256580 14.8377898623 -83.2093803343
516 2 11.1834280299 12.2259061837 -83.1742412378
517 2 15.4001304018 9.6140225051 -83.1391021414
518 2 19.6168327738 7.0021388265 -83.1039630450
519 2 1.4666790859 4.3902551479 -83.0688239486
520 2 5.6833814578 1.7783714693 -83.0336848521
521 2 2.5666884003 20.2969766984 -82.9985457557
522 2 6.7833907722 17.6850930198 -82.9634066593
523 2 11.0000931442 15.0732093412 -82.9282675629
524 2 15.2167955161 12.4613256626 -82.8931284664
525 2 -2.9333581718 9.8494419841 -82.8579893700
526 2 1.2833442002 7.2375583055 -82.8228502736
527 2 5.5000465721 4.6256746269 -82.7877111772
528 2 9.7167489440 2.0137909483 -82.7525720807
529 2 6.6000558865 20.5323961773 -82.7174329843
530 2 10.8167582584 17.9205124988 -82.6822938879
531 2 15.0334606304 15.3086288202 -82.6471547915
532 2 -3.1166930575 12.6967451416 -82.6120156950
533 2 1.1000093144 10.0848614630 -82.5768765986
534 2 5.3167116863 7.4729777844 -82.5417375022
535 2 9.5334140583 4.8610941058 -82.5065984058
536 2 13.7501164302 2.2492104272 -82.4714593093
537 2 10.6334233727 20.7678156563 -82.4363202129
538 2 14.8501257446 18.1559319777 -82.4011811165
539 2 -3.3000279432 15.5440482991 -82.3660420201
540 2 0.9166744287 12.9321646205 -82.3309029236
541 2 5.1333768006 10.3202809419 -82.2957638272
542 2 9.3500791725 7.7083972634 -82.2606247308
543 2 13.5667815445 5.0965135848 -82.2254856344
544 2 17.7834839164 2.4846299062 -82.1903465379
545 2 14.6667908589 21.0032351352 -82.1552074415
546 2 -3.4833628290 18.3913514566 -82.1200683451
547 2 0.7333395429 15.7794677781 -82.0849292487
548 2 4.9500419149 13.1675840995 -82.0497901522
549 2 9.1667442868 10.5557004209 -82.0146510558
550 2 13.3834466587 7.9438167423 -81.9795119594
551 2 17.6001490307 5.3319330637 -81.9443728630
552 2 -0.5500046572 2.7200493851 -81.9092337665
553 2 3.6666977147 0.1081657065 -81.8740946701
554 2 0.5500046572 18.6267709356 -81.8389555737
555 2 4.7667070291 16.0148872570 -81.8038164773
556 2 8.9834094011 13.4030035784 -81.7686773808
557 2 13.2001117730 10.7911198998 -81.7335382844
558 2 17.4168141449 8.1792362213 -81.6983991880
559 2 -0.7333395429 5.5673525427 -81.6632600916
560 2 3.4833628290 2.9554688641 -81.6281209951
561 2 7.7000652009 0.3435851855 -81.5929818987
562 2 4.5833721434 18.8621904145 -81.5578428023
563 2 8.8000745153 16.2503067360 -81.5227037059
564 2 13.0167768873 13.6384230574 -81.4875646094
565 2 17.2334792592 11.0265393788 -81.4524255130
566 2 -0.9166744287 8.4146557002 -81.4172864166
567 2 3.3000279433 5.8027720216 -81.3821473202
568 2 7.5167303152 3.1908883430 -81.3470082237
569 2 11.7334326871 0.5790046644 -81.3118691273
570 2 8.6167396296 19.0976098935 -81.2767300309
571 2 12.8334420015 16.4857262149 -81.2415909345
572 2 17.0501443735 13.8738425363 -81.2064518380
573 2 -1.1000093144 11.2619588577 -81.1713127416
574 2 3.1166930575 8.6500751791 -81.1361736452
575 2 7.3333954294 6.0381915006 -81.1010345488
576 2 11.5500978014 3.4263078220 -81.0658954523
577 2 15.7668001733 0.8144241434 -81.0307563559
578 2 12.6501071158 19.3330293724 -80.9956172595
579 2 -5.5000465721 16.7211456938 -80.9604781631
580 2 -1.2833442002 14.1092620153 -80.9253390666
581 2 2.9333581718 11.4973783367 -80.8901999702
582 2 7.1500605437 8.8854946581 -80.8550608738
583 2 11.3667629156 6.2736109795 -80.8199217774
584 2 15.5834652876 3.6617273009 -80.7847826809
585 2 19.8001676595 1.0498436223 -80.7496435845
586 2 -5.6833814578 19.5684488514 -80.7145044881
587 2 -1.4666790859 16.9565651728 -80.6793653917
588 2 2.7500232860 14.3446814942 -80.6442262952
589 2 6.9667256580 11.7327978156 -80.6090871988
590 2 11.1834280299 9.1209141370 -80.5739481024
591 2 15.4001304018 6.5090304585 -80.5388090060
592 2 19.6168327738 3.8971467799 -80.5036699095
593 2 1.4666790859 1.2852631013 -80.4685308131
594 2 -1.6500139716 19.8038683303 -80.4333917167
595 2 2.5666884003 17.1919846517 -80.3982526203
596 2 6.7833907722 14.5801009732 -80.3631135238
597 2 11.0000931442 11.9682172946 -80.3279744274
598 2 15.2167955161 9.3563336160 -80.2928353310
599 2 19.4334978880 6.7444499374 -80.2576962346
600 2 1.2833442002 4.1325662588 -80.2225571381
601 2 5.5000465721 1.5206825802 -80.1874180417
602 2 2.3833535146 20.0392878093 -80.1522789453
603 2 6.6000558865 17.4274041307 -80.1171398489
604 2 10.8167582584 14.8155204521 -80.0820007524
605 2 15.0334606304 12.2036367735 -80.0468616560
606 2 -3.1166930575 9.5917530949 -80.0117225596
607 2 1.1000093144 6.9798694163 -79.9765834632
608 2 5.3167116863 4.3679857378 -79.9414443667
609 2 9.5334140583 1.7561020592 -79.9063052703
610 2 6.4167210008 20.2747072882 -79.8711661739
611 2 10.6334233727 17.6628236096 -79.8360270775
612 2 14.8501257446 15.0509399311 -79.8008879810
613 2 -3.3000279432 12.4390562525 -79.7657488846
614 2 0.9166744287 9.8271725739 -79.7306097882
615 2 5.1333768006 7.2152888953 -79.6954706918
616 2 9.3500791725 4.6034052167 -79.6603315953
617 2 13.5667815445 1.9915215381 -79.6251924989
618 2 10.4500884870 20.5101267672 -79.5900534025
619 2 14.6667908589 17.8982430886 -79.5549143061
620 2 -3.4833628290 15.2863594100 -79.5197752096
621 2 0.7333395429 12.6744757314 -79.4846361132