ITEM: TIMESTEP
0
ITEM: NUMBER OF ATOMS
3309
ITEM: BOX BOUNDS xy xz yz pp ff pp
0.0000000000000000e+00 1.4259000000000000e+01 0.0000000000000000e+00
-1.2240279389371889e+02 1.2240279389371889e+02 2.0369999999999999e+00
0.0000000000000000e+00 1.8780212059505608e+01 0.0000000000000000e+00
ITEM: ATOMS id type x y z c_csym c_eng 
1 1 2.037 -121.155 17.2155 22.1216 -3.0081 
2 1 2.037 -118.778 18.7373 0.027283 -3.41244 
3 1 2.037 -120.769 0.370051 23.832 -3.03563 
4 1 6.111 -121.155 17.2155 22.1216 -3.0081 
5 1 6.111 -118.778 18.7373 0.027283 -3.41244 
6 1 4.074 -119.197 16.7473 0.0539805 -3.4005 
7 1 6.111 -120.769 0.370051 23.832 -3.03563 
8 1 10.185 -121.155 17.2155 22.1216 -3.0081 
9 1 10.185 -118.778 18.7373 0.027283 -3.41244 
10 1 8.148 -119.197 16.7473 0.0539805 -3.4005 
11 1 10.185 -120.769 0.370051 23.832 -3.03563 
12 1 12.222 -119.197 16.7473 0.0539805 -3.4005 
13 1 2.037 -119.707 14.7071 7.46734 -3.31736 
14 1 4.074 -121.539 15.2784 34.7798 -2.76612 
15 1 6.111 -119.707 14.7071 7.46734 -3.31736 
16 1 4.074 -120.194 12.7215 13.955 -3.13584 
17 1 8.148 -121.539 15.2784 34.7798 -2.76612 
18 1 10.185 -119.707 14.7071 7.46734 -3.31736 
19 1 8.148 -120.194 12.7215 13.955 -3.13584 
20 1 12.222 -121.539 15.2784 34.7798 -2.76612 
21 1 12.222 -120.194 12.7215 13.955 -3.13584 
22 1 2.037 -120.567 10.7372 15.962 -3.03323 
23 1 6.111 -120.567 10.7372 15.962 -3.03323 
24 1 4.074 -120.964 8.77496 23.6777 -3.03517 
25 1 10.185 -120.567 10.7372 15.962 -3.03323 
26 1 8.148 -120.964 8.77496 23.6777 -3.03517 
27 1 12.222 -120.964 8.77496 23.6777 -3.03517 
28 1 2.037 -121.359 6.84233 22.2152 -3.00872 
29 1 6.111 -121.359 6.84233 22.2152 -3.00872 
30 1 4.074 -121.746 4.90457 34.892 -2.76578 
31 1 10.185 -121.359 6.84233 22.2152 -3.00872 
32 1 8.148 -121.746 4.90457 34.892 -2.76578 
33 1 12.222 -121.746 4.90457 34.892 -2.76578 
34 1 2.037 -117.278 16.2734 0.0123412 -3.44626 
35 1 2.037 -114.839 17.8278 0.00146175 -3.44541 
36 1 4.074 -116.804 18.2849 0.0111185 -3.44199 
37 1 6.111 -117.278 16.2734 0.0123412 -3.44626 
38 1 6.111 -114.839 17.8278 0.00146175 -3.44541 
39 1 4.074 -115.3 15.8318 0.00834641 -3.44768 
40 1 8.148 -116.804 18.2849 0.0111185 -3.44199 
41 1 10.185 -117.278 16.2734 0.0123412 -3.44626 
42 1 10.185 -114.839 17.8278 0.00146175 -3.44541 
43 1 8.148 -115.3 15.8318 0.00834641 -3.44768 
44 1 12.222 -116.804 18.2849 0.0111185 -3.44199 
45 1 12.222 -115.3 15.8318 0.00834641 -3.44768 
46 1 2.037 -118.169 12.2935 0.00552162 -3.41954 
47 1 2.037 -115.741 13.8503 0.00351355 -3.44573 
48 1 4.074 -117.754 14.2725 0.0455724 -3.44579 
49 1 6.111 -118.169 12.2935 0.00552162 -3.41954 
50 1 6.111 -115.741 13.8503 0.00351355 -3.44573 
51 1 4.074 -116.16 11.8764 0.00305194 -3.44285 
52 1 8.148 -117.754 14.2725 0.0455724 -3.44579 
53 1 10.185 -118.169 12.2935 0.00552162 -3.41954 
54 1 10.185 -115.741 13.8503 0.00351355 -3.44573 
55 1 8.148 -116.16 11.8764 0.00305194 -3.44285 
56 1 12.222 -117.754 14.2725 0.0455724 -3.44579 
57 1 12.222 -116.16 11.8764 0.00305194 -3.44285 
58 1 2.037 -118.977 8.35727 0.0217943 -3.41159 
59 1 2.037 -116.579 9.8986 0.00869562 -3.44255 
60 1 4.074 -118.576 10.332 0.00709946 -3.41558 
61 1 6.111 -118.977 8.35727 0.0217943 -3.41159 
62 1 6.111 -116.579 9.8986 0.00869562 -3.44255 
63 1 4.074 -117.012 7.90863 0.010149 -3.44258 
64 1 8.148 -118.576 10.332 0.00709946 -3.41558 
65 1 10.185 -118.977 8.35727 0.0217943 -3.41159 
66 1 10.185 -116.579 9.8986 0.00869562 -3.44255 
67 1 8.148 -117.012 7.90863 0.010149 -3.44258 
68 1 12.222 -118.576 10.332 0.00709946 -3.41558 
69 1 12.222 -117.012 7.90863 0.010149 -3.44258 
70 1 2.037 -119.915 4.33015 7.44741 -3.31794 
71 1 2.037 -117.484 5.8931 0.0129792 -3.44617 
72 1 4.074 -119.402 6.3678 0.050156 -3.40009 
73 1 6.111 -119.915 4.33015 7.44741 -3.31794 
74 1 6.111 -117.484 5.8931 0.0129792 -3.44617 
75 1 4.074 -117.961 3.89381 0.0441261 -3.44582 
76 1 8.148 -119.402 6.3678 0.050156 -3.40009 
77 1 10.185 -119.915 4.33015 7.44741 -3.31794 
78 1 10.185 -117.484 5.8931 0.0129792 -3.44617 
79 1 8.148 -117.961 3.89381 0.0441261 -3.44582 
80 1 12.222 -119.402 6.3678 0.050156 -3.40009 
81 1 12.222 -117.961 3.89381 0.0441261 -3.44582 
82 1 2.037 -118.373 1.91799 0.00344232 -3.41924 
83 1 4.074 -120.401 2.34702 13.8014 -3.13792 
84 1 6.111 -118.373 1.91799 0.00344232 -3.41924 
85 1 8.148 -120.401 2.34702 13.8014 -3.13792 
86 1 10.185 -118.373 1.91799 0.00344232 -3.41924 
87 1 12.222 -120.401 2.34702 13.8014 -3.13792 
88 1 2.037 -110.421 0.153903 0.00046638 -3.44468 
89 1 6.111 -110.421 0.153903 0.00046638 -3.44468 
90 1 10.185 -110.421 0.153903 0.00046638 -3.44468 
91 1 2.037 -113.301 15.398 0.0012996 -3.44475 
92 1 2.037 -110.864 16.9463 0.000465365 -3.44453 
93 1 4.074 -112.857 17.3842 0.00192911 -3.4454 
94 1 6.111 -113.301 15.398 0.0012996 -3.44475 
95 1 6.111 -110.864 16.9463 0.000465365 -3.44453 
96 1 4.074 -111.3 14.9625 0.000139807 -3.4437 
97 1 8.148 -112.857 17.3842 0.00192911 -3.4454 
98 1 10.185 -113.301 15.398 0.0012996 -3.44475 
99 1 10.185 -110.864 16.9463 0.000465365 -3.44453 
100 1 8.148 -111.3 14.9625 0.000139807 -3.4437 
101 1 12.222 -112.857 17.3842 0.00192911 -3.4454 
102 1 12.222 -111.3 14.9625 0.000139807 -3.4437 
103 1 2.037 -114.159 11.4384 0.00312942 -3.44306 
104 1 2.037 -111.734 12.9793 0.000937922 -3.44314 
105 1 4.074 -113.731 13.4185 0.000647417 -3.44323 
106 1 6.111 -114.159 11.4384 0.00312942 -3.44306 
107 1 6.111 -111.734 12.9793 0.000937922 -3.44314 
108 1 4.074 -112.172 10.9923 0.000969659 -3.44341 
109 1 8.148 -113.731 13.4185 0.000647417 -3.44323 
110 1 10.185 -114.159 11.4384 0.00312942 -3.44306 
111 1 10.185 -111.734 12.9793 0.000937922 -3.44314 
112 1 8.148 -112.172 10.9923 0.000969659 -3.44341 
113 1 12.222 -113.731 13.4185 0.000647417 -3.44323 
114 1 12.222 -112.172 10.9923 0.000969659 -3.44341 
115 1 2.037 -115.05 7.4501 0.00150526 -3.44579 
116 1 2.037 -112.619 8.99932 0.000229526 -3.44447 
117 1 4.074 -114.595 9.44998 0.0029019 -3.44343 
118 1 6.111 -115.05 7.4501 0.00150526 -3.44579 
119 1 6.111 -112.619 8.99932 0.000229526 -3.44447 
120 1 4.074 -113.07 7.00563 0.0014394 -3.44541 
121 1 8.148 -114.595 9.44998 0.0029019 -3.44343 
122 1 10.185 -115.05 7.4501 0.00150526 -3.44579 
123 1 10.185 -112.619 8.99932 0.000229526 -3.44447 
124 1 8.148 -113.07 7.00563 0.0014394 -3.44541 
125 1 12.222 -114.595 9.44998 0.0029019 -3.44343 
126 1 12.222 -113.07 7.00563 0.0014394 -3.44541 
127 1 2.037 -115.948 3.47019 0.00214055 -3.44513 
128 1 2.037 -113.513 5.01767 0.00059513 -3.44453 
129 1 4.074 -115.509 5.45308 0.00731171 -3.44778 
130 1 6.111 -115.948 3.47019 0.00214055 -3.44513 
131 1 6.111 -113.513 5.01767 0.00059513 -3.44453 
132 1 4.074 -113.946 3.03427 0.00148415 -3.44267 
133 1 8.148 -115.509 5.45308 0.00731171 -3.44778 
134 1 10.185 -115.948 3.47019 0.00214055 -3.44513 
135 1 10.185 -113.513 5.01767 0.00059513 -3.44453 
136 1 8.148 -113.946 3.03427 0.00148415 -3.44267 
137 1 12.222 -115.509 5.45308 0.00731171 -3.44778 
138 1 12.222 -113.946 3.03427 0.00148415 -3.44267 
139 1 2.037 -114.384 1.04605 0.00266493 -3.44303 
140 1 4.074 -116.37 1.49388 0.00844237 -3.44136 
141 1 6.111 -114.384 1.04605 0.00266493 -3.44303 
142 1 8.148 -116.37 1.49388 0.00844237 -3.44136 
143 1 10.185 -114.384 1.04605 0.00266493 -3.44303 
144 1 12.222 -116.37 1.49388 0.00844237 -3.44136 
145 1 2.037 -108.43 18.4942 0.000155079 -3.44436 
146 1 6.111 -108.43 18.4942 0.000155079 -3.44436 
147 1 4.074 -106.437 18.0544 1.25431e-05 -3.44405 
148 1 10.185 -108.43 18.4942 0.000155079 -3.44436 
149 1 8.148 -106.437 18.0544 1.25431e-05 -3.44405 
150 1 12.222 -106.437 18.0544 1.25431e-05 -3.44405 
151 1 2.037 -109.306 14.5229 0.000262854 -3.44359 
152 1 2.037 -106.876 16.0679 7.21574e-05 -3.44383 
153 1 4.074 -108.869 16.5082 3.72795e-05 -3.44396 
154 1 6.111 -109.306 14.5229 0.000262854 -3.44359 
155 1 6.111 -106.876 16.0679 7.21574e-05 -3.44383 
156 1 4.074 -107.316 14.0804 0.000125847 -3.44381 
157 1 8.148 -108.869 16.5082 3.72795e-05 -3.44396 
158 1 10.185 -109.306 14.5229 0.000262854 -3.44359 
159 1 10.185 -106.876 16.0679 7.21574e-05 -3.44383 
160 1 8.148 -107.316 14.0804 0.000125847 -3.44381 
161 1 12.222 -108.869 16.5082 3.72795e-05 -3.44396 
162 1 12.222 -107.316 14.0804 0.000125847 -3.44381 
163 1 2.037 -110.188 10.5455 5.8892e-05 -3.44415 
164 1 2.037 -107.758 12.0913 3.03928e-05 -3.44406 
165 1 4.074 -109.745 12.5357 0.000347403 -3.44364 
166 1 6.111 -110.188 10.5455 5.8892e-05 -3.44415 
167 1 6.111 -107.758 12.0913 3.03928e-05 -3.44406 
168 1 4.074 -108.203 10.1013 4.54083e-05 -3.44432 
169 1 8.148 -109.745 12.5357 0.000347403 -3.44364 
170 1 10.185 -110.188 10.5455 5.8892e-05 -3.44415 
171 1 10.185 -107.758 12.0913 3.03928e-05 -3.44406 
172 1 8.148 -108.203 10.1013 4.54083e-05 -3.44432 
173 1 12.222 -109.745 12.5357 0.000347403 -3.44364 
174 1 12.222 -108.203 10.1013 4.54083e-05 -3.44432 
175 1 2.037 -111.079 6.56539 0.000187753 -3.44438 
176 1 2.037 -108.647 8.11214 5.39342e-05 -3.44425 
177 1 4.074 -110.635 8.55433 0.00027324 -3.44466 
178 1 6.111 -111.079 6.56539 0.000187753 -3.44438 
179 1 6.111 -108.647 8.11214 5.39342e-05 -3.44425 
180 1 4.074 -109.088 6.12422 2.26905e-05 -3.44386 
181 1 8.148 -110.635 8.55433 0.00027324 -3.44466 
182 1 10.185 -111.079 6.56539 0.000187753 -3.44438 
183 1 10.185 -108.647 8.11214 5.39342e-05 -3.44425 
184 1 8.148 -109.088 6.12422 2.26905e-05 -3.44386 
185 1 12.222 -110.635 8.55433 0.00027324 -3.44466 
186 1 12.222 -109.088 6.12422 2.26905e-05 -3.44386 
187 1 2.037 -111.958 2.59006 0.000574339 -3.44326 
188 1 2.037 -109.53 4.13567 0.000106602 -3.44369 
189 1 4.074 -111.518 4.57866 0.000207513 -3.44349 
190 1 6.111 -111.958 2.59006 0.000574339 -3.44326 
191 1 6.111 -109.53 4.13567 0.000106602 -3.44369 
192 1 4.074 -109.974 2.14495 4.75157e-05 -3.44413 
193 1 8.148 -111.518 4.57866 0.000207513 -3.44349 
194 1 10.185 -111.958 2.59006 0.000574339 -3.44326 
195 1 10.185 -109.53 4.13567 0.000106602 -3.44369 
196 1 8.148 -109.974 2.14495 4.75157e-05 -3.44413 
197 1 12.222 -111.518 4.57866 0.000207513 -3.44349 
198 1 12.222 -109.974 2.14495 4.75157e-05 -3.44413 
199 1 12.222 -112.406 0.596963 0.000241758 -3.44432 
200 1 4.074 -112.406 0.596963 0.000241758 -3.44432 
201 1 8.148 -112.406 0.596963 0.000241758 -3.44432 
202 1 2.037 -104.446 17.6135 2.01209e-05 -3.44394 
203 1 12.222 -102.015 0.379131 5.84249e-06 -3.444 
204 1 6.111 -104.446 17.6135 2.01209e-05 -3.44394 
205 1 4.074 -102.015 0.379131 5.84249e-06 -3.444 
206 1 4.074 -102.456 17.1715 1.68527e-05 -3.44397 
207 1 10.185 -104.446 17.6135 2.01209e-05 -3.44394 
208 1 8.148 -102.015 0.379131 5.84249e-06 -3.444 
209 1 8.148 -102.456 17.1715 1.68527e-05 -3.44397 
210 1 12.222 -102.456 17.1715 1.68527e-05 -3.44397 
211 1 2.037 -105.328 13.6372 1.82172e-05 -3.44403 
212 1 2.037 -102.898 15.1831 1.03013e-05 -3.44402 
213 1 4.074 -104.886 15.6259 4.57868e-05 -3.44391 
214 1 6.111 -105.328 13.6372 1.82172e-05 -3.44403 
215 1 6.111 -102.898 15.1831 1.03013e-05 -3.44402 
216 1 4.074 -103.34 13.1942 1.27351e-06 -3.44411 
217 1 8.148 -104.886 15.6259 4.57868e-05 -3.44391 
218 1 10.185 -105.328 13.6372 1.82172e-05 -3.44403 
219 1 10.185 -102.898 15.1831 1.03013e-05 -3.44402 
220 1 8.148 -103.34 13.1942 1.27351e-06 -3.44411 
221 1 12.222 -104.886 15.6259 4.57868e-05 -3.44391 
222 1 12.222 -103.34 13.1942 1.27351e-06 -3.44411 
223 1 2.037 -106.214 9.65867 1.40354e-05 -3.44418 
224 1 2.037 -103.783 11.2052 3.15547e-06 -3.44413 
225 1 4.074 -105.771 11.6478 6.24805e-06 -3.44418 
226 1 6.111 -106.214 9.65867 1.40354e-05 -3.44418 
227 1 6.111 -103.783 11.2052 3.15547e-06 -3.44413 
228 1 4.074 -104.226 9.21638 5.39399e-07 -3.44405 
229 1 8.148 -105.771 11.6478 6.24805e-06 -3.44418 
230 1 10.185 -106.214 9.65867 1.40354e-05 -3.44418 
231 1 10.185 -103.783 11.2052 3.15547e-06 -3.44413 
232 1 8.148 -104.226 9.21638 5.39399e-07 -3.44405 
233 1 12.222 -105.771 11.6478 6.24805e-06 -3.44418 
234 1 12.222 -104.226 9.21638 5.39399e-07 -3.44405 
235 1 2.037 -107.099 5.68153 1.52118e-05 -3.44389 
236 1 2.037 -104.668 7.22765 1.24595e-06 -3.44399 
237 1 4.074 -106.657 7.67012 1.82189e-06 -3.444 
238 1 6.111 -107.099 5.68153 1.52118e-05 -3.44389 
239 1 6.111 -104.668 7.22765 1.24595e-06 -3.44399 
240 1 4.074 -105.111 5.23865 3.06575e-06 -3.44406 
241 1 8.148 -106.657 7.67012 1.82189e-06 -3.444 
242 1 10.185 -107.099 5.68153 1.52118e-05 -3.44389 
243 1 10.185 -104.668 7.22765 1.24595e-06 -3.44399 
244 1 8.148 -105.111 5.23865 3.06575e-06 -3.44406 
245 1 12.222 -106.657 7.67012 1.82189e-06 -3.444 
246 1 12.222 -105.111 5.23865 3.06575e-06 -3.44406 
247 1 2.037 -107.987 1.7023 0.000119307 -3.44437 
248 1 2.037 -105.554 3.24959 3.35123e-05 -3.44421 
249 1 4.074 -107.543 3.69205 1.06046e-05 -3.44407 
250 1 6.111 -107.987 1.7023 0.000119307 -3.44437 
251 1 6.111 -105.554 3.24959 3.35123e-05 -3.44421 
252 1 4.074 -105.997 1.26129 5.08169e-05 -3.44424 
253 1 8.148 -107.543 3.69205 1.06046e-05 -3.44407 
254 1 10.185 -107.987 1.7023 0.000119307 -3.44437 
255 1 10.185 -105.554 3.24959 3.35123e-05 -3.44421 
256 1 8.148 -105.997 1.26129 5.08169e-05 -3.44424 
257 1 12.222 -107.543 3.69205 1.06046e-05 -3.44407 
258 1 12.222 -105.997 1.26129 5.08169e-05 -3.44424 
259 1 2.037 -100.467 16.7291 5.42537e-06 -3.44403 
260 1 2.037 -98.036 18.2751 2.73151e-06 -3.44404 
261 1 4.074 -100.025 18.7174 6.33329e-06 -3.44401 
262 1 6.111 -100.467 16.7291 5.42537e-06 -3.44403 
263 1 6.111 -98.036 18.2751 2.73151e-06 -3.44404 
264 1 4.074 -98.4781 16.2866 8.90141e-07 -3.44406 
265 1 8.148 -100.025 18.7174 6.33329e-06 -3.44401 
266 1 10.185 -100.467 16.7291 5.42537e-06 -3.44403 
267 1 10.185 -98.036 18.2751 2.73151e-06 -3.44404 
268 1 8.148 -98.4781 16.2866 8.90141e-07 -3.44406 
269 1 12.222 -100.025 18.7174 6.33329e-06 -3.44401 
270 1 12.222 -98.4781 16.2866 8.90141e-07 -3.44406 
271 1 2.037 -101.352 12.7516 6.19711e-07 -3.4441 
272 1 2.037 -98.9204 14.2979 1.54257e-07 -3.44408 
273 1 4.074 -100.909 14.7404 1.00173e-06 -3.44408 
274 1 6.111 -101.352 12.7516 6.19711e-07 -3.4441 
275 1 6.111 -98.9204 14.2979 1.54257e-07 -3.44408 
276 1 4.074 -99.3629 12.3091 2.86861e-07 -3.44407 
277 1 8.148 -100.909 14.7404 1.00173e-06 -3.44408 
278 1 10.185 -101.352 12.7516 6.19711e-07 -3.4441 
279 1 10.185 -98.9204 14.2979 1.54257e-07 -3.44408 
280 1 8.148 -99.3629 12.3091 2.86861e-07 -3.44407 
281 1 12.222 -100.909 14.7404 1.00173e-06 -3.44408 
282 1 12.222 -99.3629 12.3091 2.86861e-07 -3.44407 
283 1 2.037 -102.237 8.77401 1.37868e-07 -3.44404 
284 1 2.037 -99.8054 10.3204 2.9625e-07 -3.44406 
285 1 4.074 -101.794 10.7628 4.58982e-07 -3.44407 
286 1 6.111 -102.237 8.77401 1.37868e-07 -3.44404 
287 1 6.111 -99.8054 10.3204 2.9625e-07 -3.44406 
288 1 4.074 -100.248 8.33171 1.02634e-06 -3.44407 
289 1 8.148 -101.794 10.7628 4.58982e-07 -3.44407 
290 1 10.185 -102.237 8.77401 1.37868e-07 -3.44404 
291 1 10.185 -99.8054 10.3204 2.9625e-07 -3.44406 
292 1 8.148 -100.248 8.33171 1.02634e-06 -3.44407 
293 1 12.222 -101.794 10.7628 4.58982e-07 -3.44407 
294 1 12.222 -100.248 8.33171 1.02634e-06 -3.44407 
295 1 2.037 -103.122 4.79641 1.08304e-05 -3.44413 
296 1 2.037 -100.69 6.34305 4.10149e-06 -3.4441 
297 1 4.074 -102.679 6.78518 1.51733e-06 -3.44406 
298 1 6.111 -103.122 4.79641 1.08304e-05 -3.44413 
299 1 6.111 -100.69 6.34305 4.10149e-06 -3.4441 
300 1 4.074 -101.133 4.35469 6.08062e-06 -3.44412 
301 1 8.148 -102.679 6.78518 1.51733e-06 -3.44406 
302 1 10.185 -103.122 4.79641 1.08304e-05 -3.44413 
303 1 10.185 -100.69 6.34305 4.10149e-06 -3.4441 
304 1 8.148 -101.133 4.35469 6.08062e-06 -3.44412 
305 1 12.222 -102.679 6.78518 1.51733e-06 -3.44406 
306 1 12.222 -101.133 4.35469 6.08062e-06 -3.44412 
307 1 2.037 -104.006 0.82049 4.85333e-06 -3.44407 
308 1 2.037 -101.574 2.36676 2.00266e-06 -3.44407 
309 1 4.074 -103.565 2.80808 1.70493e-05 -3.44416 
310 1 6.111 -104.006 0.82049 4.85333e-06 -3.44407 
311 1 6.111 -101.574 2.36676 2.00266e-06 -3.44407 
312 1 8.148 -103.565 2.80808 1.70493e-05 -3.44416 
313 1 10.185 -104.006 0.82049 4.85333e-06 -3.44407 
314 1 10.185 -101.574 2.36676 2.00266e-06 -3.44407 
315 1 12.222 -103.565 2.80808 1.70493e-05 -3.44416 
316 1 2.037 -96.4893 15.8441 1.03417e-07 -3.44407 
317 1 2.037 -94.0581 17.3904 9.53202e-08 -3.44407 
318 1 4.074 -96.047 17.8327 6.51738e-07 -3.44406 
319 1 6.111 -96.4893 15.8441 1.03417e-07 -3.44407 
320 1 6.111 -94.0581 17.3904 9.53202e-08 -3.44407 
321 1 4.074 -94.5004 15.4018 6.46279e-08 -3.44407 
322 1 8.148 -96.047 17.8327 6.51738e-07 -3.44406 
323 1 10.185 -96.4893 15.8441 1.03417e-07 -3.44407 
324 1 10.185 -94.0581 17.3904 9.53202e-08 -3.44407 
325 1 8.148 -94.5004 15.4018 6.46279e-08 -3.44407 
326 1 12.222 -96.047 17.8327 6.51738e-07 -3.44406 
327 1 12.222 -94.5004 15.4018 6.46279e-08 -3.44407 
328 1 2.037 -97.3741 11.8668 2.96484e-07 -3.44407 
329 1 2.037 -94.9427 13.4132 2.03783e-07 -3.44407 
330 1 4.074 -96.9316 13.8555 1.42227e-07 -3.44407 
331 1 6.111 -97.3741 11.8668 2.96484e-07 -3.44407 
332 1 6.111 -94.9427 13.4132 2.03783e-07 -3.44407 
333 1 4.074 -95.385 11.4246 4.55337e-07 -3.44407 
334 1 8.148 -96.9316 13.8555 1.42227e-07 -3.44407 
335 1 10.185 -97.3741 11.8668 2.96484e-07 -3.44407 
336 1 10.185 -94.9427 13.4132 2.03783e-07 -3.44407 
337 1 8.148 -95.385 11.4246 4.55337e-07 -3.44407 
338 1 12.222 -96.9316 13.8555 1.42227e-07 -3.44407 
339 1 12.222 -95.385 11.4246 4.55337e-07 -3.44407 
340 1 2.037 -98.2588 7.8896 1.79453e-06 -3.44409 
341 1 2.037 -95.8273 9.43605 8.7187e-07 -3.44408 
342 1 4.074 -97.8165 9.87817 7.09063e-07 -3.44407 
343 1 6.111 -98.2588 7.8896 1.79453e-06 -3.44409 
344 1 6.111 -95.8273 9.43605 8.7187e-07 -3.44408 
345 1 4.074 -96.2694 7.44765 1.00196e-06 -3.44408 
346 1 8.148 -97.8165 9.87817 7.09063e-07 -3.44407 
347 1 10.185 -98.2588 7.8896 1.79453e-06 -3.44409 
348 1 10.185 -95.8273 9.43605 8.7187e-07 -3.44408 
349 1 8.148 -96.2694 7.44765 1.00196e-06 -3.44408 
350 1 12.222 -97.8165 9.87817 7.09063e-07 -3.44407 
351 1 12.222 -96.2694 7.44765 1.00196e-06 -3.44408 
352 1 2.037 -99.1427 3.91308 8.61772e-07 -3.44407 
353 1 2.037 -96.7112 5.45942 3.89339e-07 -3.44407 
354 1 4.074 -98.7009 5.90121 2.35546e-06 -3.44409 
355 1 6.111 -99.1427 3.91308 8.61772e-07 -3.44407 
356 1 6.111 -96.7112 5.45942 3.89339e-07 -3.44407 
357 1 4.074 -97.1528 3.47132 5.96074e-07 -3.44405 
358 1 8.148 -98.7009 5.90121 2.35546e-06 -3.44409 
359 1 10.185 -99.1427 3.91308 8.61772e-07 -3.44407 
360 1 10.185 -96.7112 5.45942 3.89339e-07 -3.44407 
361 1 8.148 -97.1528 3.47132 5.96074e-07 -3.44405 
362 1 12.222 -98.7009 5.90121 2.35546e-06 -3.44409 
363 1 12.222 -97.1528 3.47132 5.96074e-07 -3.44405 
364 1 2.037 -97.5943 1.4832 2.44858e-06 -3.44403 
365 1 4.074 -99.584 1.92516 1.80366e-06 -3.44403 
366 1 6.111 -97.5943 1.4832 2.44858e-06 -3.44403 
367 1 8.148 -99.584 1.92516 1.80366e-06 -3.44403 
368 1 10.185 -97.5943 1.4832 2.44858e-06 -3.44403 
369 1 12.222 -99.584 1.92516 1.80366e-06 -3.44403 
370 1 12.222 -91.6269 0.156437 7.77694e-08 -3.44406 
371 1 4.074 -91.6269 0.156437 7.77694e-08 -3.44406 
372 1 4.074 -89.6378 18.4944 1.51129e-08 -3.44407 
373 1 8.148 -91.6269 0.156437 7.77694e-08 -3.44406 
374 1 8.148 -89.6378 18.4944 1.51129e-08 -3.44407 
375 1 12.222 -89.6378 18.4944 1.51129e-08 -3.44407 
376 1 2.037 -92.5114 14.9595 1.16374e-07 -3.44407 
377 1 2.037 -90.0801 16.5058 5.95187e-08 -3.44407 
378 1 4.074 -92.0691 16.9481 2.97025e-08 -3.44407 
379 1 6.111 -92.5114 14.9595 1.16374e-07 -3.44407 
380 1 6.111 -90.0801 16.5058 5.95187e-08 -3.44407 
381 1 4.074 -90.5223 14.5173 1.52385e-07 -3.44407 
382 1 8.148 -92.0691 16.9481 2.97025e-08 -3.44407 
383 1 10.185 -92.5114 14.9595 1.16374e-07 -3.44407 
384 1 10.185 -90.0801 16.5058 5.95187e-08 -3.44407 
385 1 8.148 -90.5223 14.5173 1.52385e-07 -3.44407 
386 1 12.222 -92.0691 16.9481 2.97025e-08 -3.44407 
387 1 12.222 -90.5223 14.5173 1.52385e-07 -3.44407 
388 1 2.037 -93.3958 10.9825 4.50317e-07 -3.44407 
389 1 2.037 -90.9644 12.5288 2.39129e-07 -3.44407 
390 1 4.074 -92.9536 12.971 2.71697e-07 -3.44407 
391 1 6.111 -93.3958 10.9825 4.50317e-07 -3.44407 
392 1 6.111 -90.9644 12.5288 2.39129e-07 -3.44407 
393 1 4.074 -91.4065 10.5404 2.30623e-07 -3.44407 
394 1 8.148 -92.9536 12.971 2.71697e-07 -3.44407 
395 1 10.185 -93.3958 10.9825 4.50317e-07 -3.44407 
396 1 10.185 -90.9644 12.5288 2.39129e-07 -3.44407 
397 1 8.148 -91.4065 10.5404 2.30623e-07 -3.44407 
398 1 12.222 -92.9536 12.971 2.71697e-07 -3.44407 
399 1 12.222 -91.4065 10.5404 2.30623e-07 -3.44407 
400 1 2.037 -94.2798 7.00575 1.86778e-07 -3.44407 
401 1 2.037 -91.8485 8.55206 9.51291e-08 -3.44407 
402 1 4.074 -93.8379 8.99404 4.64534e-07 -3.44407 
403 1 6.111 -94.2798 7.00575 1.86778e-07 -3.44407 
404 1 6.111 -91.8485 8.55206 9.51291e-08 -3.44407 
405 1 4.074 -92.2903 6.56378 7.9866e-08 -3.44406 
406 1 8.148 -93.8379 8.99404 4.64534e-07 -3.44407 
407 1 10.185 -94.2798 7.00575 1.86778e-07 -3.44407 
408 1 10.185 -91.8485 8.55206 9.51291e-08 -3.44407 
409 1 8.148 -92.2903 6.56378 7.9866e-08 -3.44406 
410 1 12.222 -93.8379 8.99404 4.64534e-07 -3.44407 
411 1 12.222 -92.2903 6.56378 7.9866e-08 -3.44406 
412 1 2.037 -95.1632 3.02933 9.76637e-07 -3.44404 
413 1 2.037 -92.7321 4.57551 4.01412e-07 -3.44405 
414 1 4.074 -94.7216 5.01754 2.11451e-07 -3.44406 
415 1 6.111 -95.1632 3.02933 9.76637e-07 -3.44404 
416 1 6.111 -92.7321 4.57551 4.01412e-07 -3.44405 
417 1 4.074 -93.1739 2.58718 6.49735e-07 -3.44405 
418 1 8.148 -94.7216 5.01754 2.11451e-07 -3.44406 
419 1 10.185 -95.1632 3.02933 9.76637e-07 -3.44404 
420 1 10.185 -92.7321 4.57551 4.01412e-07 -3.44405 
421 1 8.148 -93.1739 2.58718 6.49735e-07 -3.44405 
422 1 12.222 -94.7216 5.01754 2.11451e-07 -3.44406 
423 1 12.222 -93.1739 2.58718 6.49735e-07 -3.44405 
424 1 2.037 -93.6159 0.59873 4.17913e-07 -3.44406 
425 1 4.074 -95.605 1.04101 1.34026e-06 -3.44404 
426 1 6.111 -93.6159 0.59873 4.17913e-07 -3.44406 
427 1 8.148 -95.605 1.04101 1.34026e-06 -3.44404 
428 1 10.185 -93.6159 0.59873 4.17913e-07 -3.44406 
429 1 12.222 -95.605 1.04101 1.34026e-06 -3.44404 
430 1 2.037 -87.6488 18.0522 2.82807e-08 -3.44407 
431 1 6.111 -87.6488 18.0522 2.82807e-08 -3.44407 
432 1 4.074 -85.6596 17.61 4.15524e-08 -3.44407 
433 1 10.185 -87.6488 18.0522 2.82807e-08 -3.44407 
434 1 8.148 -85.6596 17.61 4.15524e-08 -3.44407 
435 1 12.222 -85.6596 17.61 4.15524e-08 -3.44407 
436 1 2.037 -88.5331 14.0752 1.27748e-07 -3.44407 
437 1 2.037 -86.1017 15.6215 6.7793e-08 -3.44407 
438 1 4.074 -88.0909 16.0637 8.12889e-08 -3.44407 
439 1 6.111 -88.5331 14.0752 1.27748e-07 -3.44407 
440 1 6.111 -86.1017 15.6215 6.7793e-08 -3.44407 
441 1 4.074 -86.5438 13.6331 6.40543e-08 -3.44407 
442 1 8.148 -88.0909 16.0637 8.12889e-08 -3.44407 
443 1 10.185 -88.5331 14.0752 1.27748e-07 -3.44407 
444 1 10.185 -86.1017 15.6215 6.7793e-08 -3.44407 
445 1 8.148 -86.5438 13.6331 6.40543e-08 -3.44407 
446 1 12.222 -88.0909 16.0637 8.12889e-08 -3.44407 
447 1 12.222 -86.5438 13.6331 6.40543e-08 -3.44407 
448 1 2.037 -89.4172 10.0984 5.10966e-08 -3.44407 
449 1 2.037 -86.9858 11.6447 2.85886e-08 -3.44407 
450 1 4.074 -88.9752 12.0867 1.19923e-07 -3.44407 
451 1 6.111 -89.4172 10.0984 5.10966e-08 -3.44407 
452 1 6.111 -86.9858 11.6447 2.85886e-08 -3.44407 
453 1 4.074 -87.4278 9.65631 1.34257e-08 -3.44406 
454 1 8.148 -88.9752 12.0867 1.19923e-07 -3.44407 
455 1 10.185 -89.4172 10.0984 5.10966e-08 -3.44407 
456 1 10.185 -86.9858 11.6447 2.85886e-08 -3.44407 
457 1 8.148 -87.4278 9.65631 1.34257e-08 -3.44406 
458 1 12.222 -88.9752 12.0867 1.19923e-07 -3.44407 
459 1 12.222 -87.4278 9.65631 1.34257e-08 -3.44406 
460 1 2.037 -90.3009 6.12172 1.68987e-07 -3.44406 
461 1 2.037 -87.8697 7.66796 7.22823e-08 -3.44406 
462 1 4.074 -89.8591 8.11004 3.1875e-08 -3.44406 
463 1 6.111 -90.3009 6.12172 1.68987e-07 -3.44406 
464 1 6.111 -87.8697 7.66796 7.22823e-08 -3.44406 
465 1 4.074 -88.3116 5.67959 1.50848e-07 -3.44406 
466 1 8.148 -89.8591 8.11004 3.1875e-08 -3.44406 
467 1 10.185 -90.3009 6.12172 1.68987e-07 -3.44406 
468 1 10.185 -87.8697 7.66796 7.22823e-08 -3.44406 
469 1 8.148 -88.3116 5.67959 1.50848e-07 -3.44406 
470 1 12.222 -89.8591 8.11004 3.1875e-08 -3.44406 
471 1 12.222 -88.3116 5.67959 1.50848e-07 -3.44406 
472 1 2.037 -91.1848 2.14494 2.47629e-07 -3.44406 
473 1 2.037 -88.7536 3.69117 1.39706e-07 -3.44406 
474 1 4.074 -90.7428 4.13337 3.13422e-07 -3.44405 
475 1 6.111 -91.1848 2.14494 2.47629e-07 -3.44406 
476 1 6.111 -88.7536 3.69117 1.39706e-07 -3.44406 
477 1 4.074 -89.1957 1.70269 5.60336e-08 -3.44406 
478 1 8.148 -90.7428 4.13337 3.13422e-07 -3.44405 
479 1 10.185 -91.1848 2.14494 2.47629e-07 -3.44406 
480 1 10.185 -88.7536 3.69117 1.39706e-07 -3.44406 
481 1 8.148 -89.1957 1.70269 5.60336e-08 -3.44406 
482 1 12.222 -90.7428 4.13337 3.13422e-07 -3.44405 
483 1 12.222 -89.1957 1.70269 5.60336e-08 -3.44406 
484 1 2.037 -83.6704 17.1678 3.54235e-08 -3.44407 
485 1 2.037 -81.2391 18.7141 1.8059e-08 -3.44407 
486 1 2.037 -83.2283 0.376073 2.04029e-08 -3.44407 
487 1 6.111 -83.6704 17.1678 3.54235e-08 -3.44407 
488 1 6.111 -81.2391 18.7141 1.8059e-08 -3.44407 
489 1 4.074 -81.6812 16.7257 1.86336e-08 -3.44407 
490 1 6.111 -83.2283 0.376073 2.04029e-08 -3.44407 
491 1 10.185 -83.6704 17.1678 3.54235e-08 -3.44407 
492 1 10.185 -81.2391 18.7141 1.8059e-08 -3.44407 
493 1 8.148 -81.6812 16.7257 1.86336e-08 -3.44407 
494 1 10.185 -83.2283 0.376073 2.04029e-08 -3.44407 
495 1 12.222 -81.6812 16.7257 1.86336e-08 -3.44407 
496 1 2.037 -84.5545 13.191 1.6452e-08 -3.44407 
497 1 2.037 -82.1232 14.7373 9.61631e-09 -3.44406 
498 1 4.074 -84.1125 15.1794 3.45908e-08 -3.44407 
499 1 6.111 -84.5545 13.191 1.6452e-08 -3.44407 
500 1 6.111 -82.1232 14.7373 9.61631e-09 -3.44406 
501 1 4.074 -82.5652 12.7489 2.96318e-09 -3.44406 
502 1 8.148 -84.1125 15.1794 3.45908e-08 -3.44407 
503 1 10.185 -84.5545 13.191 1.6452e-08 -3.44407 
504 1 10.185 -82.1232 14.7373 9.61631e-09 -3.44406 
505 1 8.148 -82.5652 12.7489 2.96318e-09 -3.44406 
506 1 12.222 -84.1125 15.1794 3.45908e-08 -3.44407 
507 1 12.222 -82.5652 12.7489 2.96318e-09 -3.44406 
508 1 2.037 -85.4385 9.21422 3.11028e-08 -3.44406 
509 1 2.037 -83.0072 10.7605 1.33053e-08 -3.44406 
510 1 4.074 -84.9965 11.2026 6.03684e-09 -3.44406 
511 1 6.111 -85.4385 9.21422 3.11028e-08 -3.44406 
512 1 6.111 -83.0072 10.7605 1.33053e-08 -3.44406 
513 1 4.074 -83.4492 8.77209 3.44569e-08 -3.44406 
514 1 8.148 -84.9965 11.2026 6.03684e-09 -3.44406 
515 1 10.185 -85.4385 9.21422 3.11028e-08 -3.44406 
516 1 10.185 -83.0072 10.7605 1.33053e-08 -3.44406 
517 1 8.148 -83.4492 8.77209 3.44569e-08 -3.44406 
518 1 12.222 -84.9965 11.2026 6.03684e-09 -3.44406 
519 1 12.222 -83.4492 8.77209 3.44569e-08 -3.44406 
520 1 2.037 -86.3224 5.23741 7.63166e-08 -3.44406 
521 1 2.037 -83.8912 6.78367 4.06801e-08 -3.44406 
522 1 4.074 -85.8804 7.22583 7.23746e-08 -3.44406 
523 1 6.111 -86.3224 5.23741 7.63166e-08 -3.44406 
524 1 6.111 -83.8912 6.78367 4.06801e-08 -3.44406 
525 1 4.074 -84.3332 4.79522 2.31404e-08 -3.44406 
526 1 8.148 -85.8804 7.22583 7.23746e-08 -3.44406 
527 1 10.185 -86.3224 5.23741 7.63166e-08 -3.44406 
528 1 10.185 -83.8912 6.78367 4.06801e-08 -3.44406 
529 1 8.148 -84.3332 4.79522 2.31404e-08 -3.44406 
530 1 12.222 -85.8804 7.22583 7.23746e-08 -3.44406 
531 1 12.222 -84.3332 4.79522 2.31404e-08 -3.44406 
532 1 2.037 -87.2066 1.26046 8.78811e-09 -3.44406 
533 1 2.037 -84.7753 2.80674 5.6578e-09 -3.44406 
534 1 4.074 -86.7645 3.24895 3.70697e-08 -3.44406 
535 1 6.111 -87.2066 1.26046 8.78811e-09 -3.44406 
536 1 6.111 -84.7753 2.80674 5.6578e-09 -3.44406 
537 1 4.074 -85.2175 0.81825 1.27364e-08 -3.44407 
538 1 8.148 -86.7645 3.24895 3.70697e-08 -3.44406 
539 1 10.185 -87.2066 1.26046 8.78811e-09 -3.44406 
540 1 10.185 -84.7753 2.80674 5.6578e-09 -3.44406 
541 1 8.148 -85.2175 0.81825 1.27364e-08 -3.44407 
542 1 12.222 -86.7645 3.24895 3.70697e-08 -3.44406 
543 1 12.222 -85.2175 0.81825 1.27364e-08 -3.44407 
544 1 2.037 -79.6919 16.2836 5.64496e-09 -3.44406 
545 1 2.037 -77.2606 17.8299 3.28997e-09 -3.44406 
546 1 4.074 -79.2499 18.272 9.87095e-09 -3.44407 
547 1 6.111 -79.6919 16.2836 5.64496e-09 -3.44406 
548 1 6.111 -77.2606 17.8299 3.28997e-09 -3.44406 
549 1 4.074 -77.7027 15.8414 1.00979e-09 -3.44406 
550 1 8.148 -79.2499 18.272 9.87095e-09 -3.44407 
551 1 10.185 -79.6919 16.2836 5.64496e-09 -3.44406 
552 1 10.185 -77.2606 17.8299 3.28997e-09 -3.44406 
553 1 8.148 -77.7027 15.8414 1.00979e-09 -3.44406 
554 1 12.222 -79.2499 18.272 9.87095e-09 -3.44407 
555 1 12.222 -77.7027 15.8414 1.00979e-09 -3.44406 
556 1 2.037 -80.576 12.3068 5.57033e-09 -3.44406 
557 1 2.037 -78.1447 13.853 2.23443e-09 -3.44406 
558 1 4.074 -80.1339 14.2952 1.62586e-09 -3.44406 
559 1 6.111 -80.576 12.3068 5.57033e-09 -3.44406 
560 1 6.111 -78.1447 13.853 2.23443e-09 -3.44406 
561 1 4.074 -78.5867 11.8646 7.26695e-09 -3.44406 
562 1 8.148 -80.1339 14.2952 1.62586e-09 -3.44406 
563 1 10.185 -80.576 12.3068 5.57033e-09 -3.44406 
564 1 10.185 -78.1447 13.853 2.23443e-09 -3.44406 
565 1 8.148 -78.5867 11.8646 7.26695e-09 -3.44406 
566 1 12.222 -80.1339 14.2952 1.62586e-09 -3.44406 
567 1 12.222 -78.5867 11.8646 7.26695e-09 -3.44406 
568 1 2.037 -81.46 8.32993 2.1174e-08 -3.44406 
569 1 2.037 -79.0287 9.8762 1.06783e-08 -3.44406 
570 1 4.074 -81.0179 10.3183 1.61195e-08 -3.44406 
571 1 6.111 -81.46 8.32993 2.1174e-08 -3.44406 
572 1 6.111 -79.0287 9.8762 1.06783e-08 -3.44406 
573 1 4.074 -79.4708 7.88776 7.97764e-09 -3.44406 
574 1 8.148 -81.0179 10.3183 1.61195e-08 -3.44406 
575 1 10.185 -81.46 8.32993 2.1174e-08 -3.44406 
576 1 10.185 -79.0287 9.8762 1.06783e-08 -3.44406 
577 1 8.148 -79.4708 7.88776 7.97764e-09 -3.44406 
578 1 12.222 -81.0179 10.3183 1.61195e-08 -3.44406 
579 1 12.222 -79.4708 7.88776 7.97764e-09 -3.44406 
580 1 2.037 -82.3441 4.35302 3.81899e-09 -3.44406 
581 1 2.037 -79.9128 5.89931 2.60603e-09 -3.44406 
582 1 4.074 -81.902 6.34149 1.38396e-08 -3.44406 
583 1 6.111 -82.3441 4.35302 3.81899e-09 -3.44406 
584 1 6.111 -79.9128 5.89931 2.60603e-09 -3.44406 
585 1 4.074 -80.3549 3.91084 2.32774e-09 -3.44406 
586 1 8.148 -81.902 6.34149 1.38396e-08 -3.44406 
587 1 10.185 -82.3441 4.35302 3.81899e-09 -3.44406 
588 1 10.185 -79.9128 5.89931 2.60603e-09 -3.44406 