ITEM: TIMESTEP
0
ITEM: NUMBER OF ATOMS
3234
ITEM: BOX BOUNDS xy xz yz pp pp ff
0.0 18.516618516627773 2.5717525717538603
0.0 16.49935116026316 0.0
-101.25 101.25 0.0
ITEM: ATOMS id type x y z
1 2 12.8587628588 12.9076556696 -101.6349823774
2 2 14.4018144018 8.1935553381 -101.6349823774
3 2 15.9448659449 3.4794550066 -101.6349823774
4 2 4.1148041148 15.2647058353 -101.6349823774
5 2 5.6578556579 10.5506055038 -101.6349823774
6 2 7.2009072009 5.8365051723 -101.6349823774
7 2 8.7439587440 1.1224048408 -101.6349823774
8 2 10.0298350298 12.8515354276 -101.1930911497
9 2 11.5728865729 8.1374350960 -101.1930911497
10 2 13.1159381159 3.4233347645 -101.1930911497
11 2 17.2307422308 15.2085855933 -101.1930911497
12 2 2.8289278289 10.4944852618 -101.1930911497
13 2 4.3719793720 5.7803849303 -101.1930911497
14 2 5.9150309150 1.0662845988 -101.1930911497
15 2 7.2009072009 12.7954151855 -100.7511999220
16 2 8.7439587440 8.0813148540 -100.7511999220
17 2 10.2870102870 3.3672145225 -100.7511999220
18 2 14.4018144018 15.1524653513 -100.7511999220
19 2 15.9448659449 10.4383650198 -100.7511999220
20 2 1.5430515431 5.7242646883 -100.7511999220
21 2 3.0861030861 1.0101643568 -100.7511999220
22 2 4.3719793720 12.7392949435 -100.3093086942
23 2 5.9150309150 8.0251946120 -100.3093086942
24 2 7.4580824581 3.3110942805 -100.3093086942
25 2 11.5728865729 15.0963451092 -100.3093086942
26 2 13.1159381159 10.3822447777 -100.3093086942
27 2 14.6589896590 5.6681444462 -100.3093086942
28 2 0.2571752572 0.9540441147 -100.3093086942
29 2 17.4879174879 12.6831747014 -99.8674174665
30 2 3.0861030861 7.9690743699 -99.8674174665
31 2 4.6291546292 3.2549740384 -99.8674174665
32 2 8.7439587440 15.0402248672 -99.8674174665
33 2 10.2870102870 10.3261245357 -99.8674174665
34 2 11.8300618301 5.6120242042 -99.8674174665
35 2 13.3731133731 0.8979238727 -99.8674174665
36 2 14.6589896590 12.6270544594 -99.4255262388
37 2 16.2020412020 7.9129541279 -99.4255262388
38 2 1.8002268002 3.1988537964 -99.4255262388
39 2 5.9150309150 14.9841046251 -99.4255262388
40 2 7.4580824581 10.2700042936 -99.4255262388
41 2 9.0011340011 5.5559039621 -99.4255262388
42 2 10.5441855442 0.8418036306 -99.4255262388
43 2 11.8300618301 12.5709342173 -98.9836350110
44 2 13.3731133731 7.8568338858 -98.9836350110
45 2 14.9161649162 3.1427335543 -98.9836350110
46 2 3.0861030861 14.9279843831 -98.9836350110
47 2 4.6291546292 10.2138840516 -98.9836350110
48 2 6.1722061722 5.4997837201 -98.9836350110
49 2 7.7152577153 0.7856833886 -98.9836350110
50 2 9.0011340011 12.5148139753 -98.5417437833
51 2 10.5441855442 7.8007136438 -98.5417437833
52 2 12.0872370872 3.0866133123 -98.5417437833
53 2 16.2020412020 14.8718641411 -98.5417437833
54 2 1.8002268002 10.1577638095 -98.5417437833
55 2 3.3432783433 5.4436634780 -98.5417437833
56 2 4.8863298863 0.7295631465 -98.5417437833
57 2 6.1722061722 12.4586937333 -98.0998525556
58 2 7.7152577153 7.7445934018 -98.0998525556
59 2 9.2583092583 3.0304930703 -98.0998525556
60 2 13.3731133731 14.8157438990 -98.0998525556
61 2 14.9161649162 10.1016435675 -98.0998525556
62 2 16.4592164592 5.3875432360 -98.0998525556
63 2 2.0574020574 0.6734429045 -98.0998525556
64 2 3.3432783433 12.4025734912 -97.6579613279
65 2 4.8863298863 7.6884731597 -97.6579613279
66 2 6.4293814294 2.9743728282 -97.6579613279
67 2 10.5441855442 14.7596236570 -97.6579613279
68 2 12.0872370872 10.0455233255 -97.6579613279
69 2 13.6302886303 5.3314229940 -97.6579613279
70 2 15.1733401733 0.6173226625 -97.6579613279
71 2 16.4592164592 12.3464532492 -97.2160701001
72 2 2.0574020574 7.6323529177 -97.2160701001
73 2 3.6004536005 2.9182525862 -97.2160701001
74 2 7.7152577153 14.7035034149 -97.2160701001
75 2 9.2583092583 9.9894030834 -97.2160701001
76 2 10.8013608014 5.2753027519 -97.2160701001
77 2 12.3444123444 0.5612024204 -97.2160701001
78 2 13.6302886303 12.2903330071 -96.7741788724
79 2 15.1733401733 7.5762326756 -96.7741788724
80 2 0.7715257715 2.8621323441 -96.7741788724
81 2 4.8863298863 14.6473831729 -96.7741788724
82 2 6.4293814294 9.9332828414 -96.7741788724
83 2 7.9724329724 5.2191825099 -96.7741788724
84 2 9.5154845155 0.5050821784 -96.7741788724
85 2 10.8013608014 12.2342127651 -96.3322876447
86 2 12.3444123444 7.5201124336 -96.3322876447
87 2 13.8874638875 2.8060121021 -96.3322876447
88 2 18.0022680023 14.5912629308 -96.3322876447
89 2 3.6004536005 9.8771625993 -96.3322876447
90 2 5.1435051435 5.1630622678 -96.3322876447
91 2 6.6865566866 0.4489619363 -96.3322876447
92 2 7.9724329724 12.1780925231 -95.8903964170
93 2 9.5154845155 7.4639921915 -95.8903964170
94 2 11.0585360585 2.7498918600 -95.8903964170
95 2 15.1733401733 14.5351426888 -95.8903964170
96 2 16.7163917164 9.8210423573 -95.8903964170
97 2 2.3145773146 5.1069420258 -95.8903964170
98 2 3.8576288576 0.3928416943 -95.8903964170
99 2 5.1435051435 12.1219722810 -95.4485051892
100 2 6.6865566866 7.4078719495 -95.4485051892
101 2 8.2296082296 2.6937716180 -95.4485051892
102 2 12.3444123444 14.4790224468 -95.4485051892
103 2 13.8874638875 9.7649221153 -95.4485051892
104 2 15.4305154305 5.0508217838 -95.4485051892
105 2 1.0287010287 0.3367214523 -95.4485051892
106 2 2.3145773146 12.0658520390 -95.0066139615
107 2 3.8576288576 7.3517517075 -95.0066139615
108 2 5.4006804007 2.6376513760 -95.0066139615
109 2 9.5154845155 14.4229022047 -95.0066139615
110 2 11.0585360585 9.7088018732 -95.0066139615
111 2 12.6015876016 4.9947015417 -95.0066139615
112 2 14.1446391446 0.2806012102 -95.0066139615
113 2 15.4305154305 12.0097317969 -94.5647227338
114 2 16.9735669736 7.2956314654 -94.5647227338
115 2 2.5717525718 2.5815311339 -94.5647227338
116 2 6.6865566866 14.3667819627 -94.5647227338
117 2 8.2296082296 9.6526816312 -94.5647227338
118 2 9.7726597727 4.9385812997 -94.5647227338
119 2 11.3157113157 0.2244809682 -94.5647227338
120 2 12.6015876016 11.9536115549 -94.1228315060
121 2 14.1446391446 7.2395112234 -94.1228315060
122 2 15.6876906877 2.5254108919 -94.1228315060
123 2 3.8576288576 14.3106617206 -94.1228315060
124 2 5.4006804007 9.5965613891 -94.1228315060
125 2 6.9437319437 4.8824610576 -94.1228315060
126 2 8.4867834868 0.1683607261 -94.1228315060
127 2 9.7726597727 11.8974913128 -93.6809402783
128 2 11.3157113157 7.1833909813 -93.6809402783
129 2 12.8587628588 2.4692906498 -93.6809402783
130 2 16.9735669736 14.2545414786 -93.6809402783
131 2 2.5717525718 9.5404411471 -93.6809402783
132 2 4.1148041148 4.8263408156 -93.6809402783
133 2 5.6578556579 0.1122404841 -93.6809402783
134 2 6.9437319437 11.8413710708 -93.2390490506
135 2 8.4867834868 7.1272707393 -93.2390490506
136 2 10.0298350298 2.4131704078 -93.2390490506
137 2 14.1446391446 14.1984212366 -93.2390490506
138 2 15.6876906877 9.4843209050 -93.2390490506
139 2 1.2858762859 4.7702205735 -93.2390490506
140 2 2.8289278289 0.0561202420 -93.2390490506
141 2 4.1148041148 11.7852508288 -92.7971578229
142 2 5.6578556579 7.0711504973 -92.7971578229
143 2 7.2009072009 2.3570501658 -92.7971578229
144 2 11.3157113157 14.1423009945 -92.7971578229
145 2 12.8587628588 9.4282006630 -92.7971578229
146 2 14.4018144018 4.7141003315 -92.7971578229
147 2 2.5717525718 16.4993511603 -92.7971578229
148 2 17.2307422308 11.7291305867 -92.3552665951
149 2 2.8289278289 7.0150302552 -92.3552665951
150 2 4.3719793720 2.3009299237 -92.3552665951
151 2 8.4867834868 14.0861807525 -92.3552665951
152 2 10.0298350298 9.3720804210 -92.3552665951
153 2 11.5728865729 4.6579800895 -92.3552665951
154 2 15.6876906877 16.4432309182 -92.3552665951
155 2 14.4018144018 11.6730103447 -91.9133753674
156 2 15.9448659449 6.9589100132 -91.9133753674
157 2 1.5430515431 2.2448096817 -91.9133753674
158 2 5.6578556579 14.0300605104 -91.9133753674
159 2 7.2009072009 9.3159601789 -91.9133753674
160 2 8.7439587440 4.6018598474 -91.9133753674
161 2 12.8587628588 16.3871106762 -91.9133753674
162 2 11.5728865729 11.6168901026 -91.4714841397
163 2 13.1159381159 6.9027897711 -91.4714841397
164 2 14.6589896590 2.1886894396 -91.4714841397
165 2 2.8289278289 13.9739402684 -91.4714841397
166 2 4.3719793720 9.2598399369 -91.4714841397
167 2 5.9150309150 4.5457396054 -91.4714841397
168 2 10.0298350298 16.3309904341 -91.4714841397
169 2 8.7439587440 11.5607698606 -91.0295929119
170 2 10.2870102870 6.8466695291 -91.0295929119
171 2 11.8300618301 2.1325691976 -91.0295929119
172 2 15.9448659449 13.9178200263 -91.0295929119
173 2 1.5430515431 9.2037196948 -91.0295929119
174 2 3.0861030861 4.4896193633 -91.0295929119
175 2 7.2009072009 16.2748701921 -91.0295929119
176 2 5.9150309150 11.5046496186 -90.5877016842
177 2 7.4580824581 6.7905492870 -90.5877016842
178 2 9.0011340011 2.0764489555 -90.5877016842
179 2 13.1159381159 13.8616997843 -90.5877016842
180 2 14.6589896590 9.1475994528 -90.5877016842
181 2 16.2020412020 4.4334991213 -90.5877016842
182 2 4.3719793720 16.2187499501 -90.5877016842
183 2 3.0861030861 11.4485293765 -90.1458104565
184 2 4.6291546292 6.7344290450 -90.1458104565
185 2 6.1722061722 2.0203287135 -90.1458104565
186 2 10.2870102870 13.8055795423 -90.1458104565
187 2 11.8300618301 9.0914792108 -90.1458104565
188 2 13.3731133731 4.3773788793 -90.1458104565
189 2 17.4879174879 16.1626297080 -90.1458104565
190 2 16.2020412020 11.3924091345 -89.7039192288
191 2 1.8002268002 6.6783088030 -89.7039192288
192 2 3.3432783433 1.9642084715 -89.7039192288
193 2 7.4580824581 13.7494593002 -89.7039192288
194 2 9.0011340011 9.0353589687 -89.7039192288
195 2 10.5441855442 4.3212586372 -89.7039192288
196 2 14.6589896590 16.1065094660 -89.7039192288
197 2 13.3731133731 11.3362888924 -89.2620280010
198 2 14.9161649162 6.6221885609 -89.2620280010
199 2 0.5143505144 1.9080882294 -89.2620280010
200 2 4.6291546292 13.6933390582 -89.2620280010
201 2 6.1722061722 8.9792387267 -89.2620280010
202 2 7.7152577153 4.2651383952 -89.2620280010
203 2 11.8300618301 16.0503892239 -89.2620280010
204 2 10.5441855442 11.2801686504 -88.8201367733
205 2 12.0872370872 6.5660683189 -88.8201367733
206 2 13.6302886303 1.8519679874 -88.8201367733
207 2 17.7450927451 13.6372188161 -88.8201367733
208 2 3.3432783433 8.9231184846 -88.8201367733
209 2 4.8863298863 4.2090181531 -88.8201367733
210 2 9.0011340011 15.9942689819 -88.8201367733
211 2 7.7152577153 11.2240484083 -88.3782455456
212 2 9.2583092583 6.5099480768 -88.3782455456
213 2 10.8013608014 1.7958477453 -88.3782455456
214 2 14.9161649162 13.5810985741 -88.3782455456
215 2 16.4592164592 8.8669982426 -88.3782455456
216 2 2.0574020574 4.1528979111 -88.3782455456
217 2 6.1722061722 15.9381487398 -88.3782455456
218 2 4.8863298863 11.1679281663 -87.9363543178
219 2 6.4293814294 6.4538278348 -87.9363543178
220 2 7.9724329724 1.7397275033 -87.9363543178
221 2 12.0872370872 13.5249783321 -87.9363543178
222 2 13.6302886303 8.8108780005 -87.9363543178
223 2 15.1733401733 4.0967776690 -87.9363543178
224 2 3.3432783433 15.8820284978 -87.9363543178
225 2 2.0574020574 11.1118079243 -87.4944630901
226 2 3.6004536005 6.3977075928 -87.4944630901
227 2 5.1435051435 1.6836072613 -87.4944630901
228 2 9.2583092583 13.4688580900 -87.4944630901
229 2 10.8013608014 8.7547577585 -87.4944630901
230 2 12.3444123444 4.0406574270 -87.4944630901
231 2 16.4592164592 15.8259082558 -87.4944630901
232 2 15.1733401733 11.0556876822 -87.0525718624
233 2 16.7163917164 6.3415873507 -87.0525718624
234 2 2.3145773146 1.6274870192 -87.0525718624
235 2 6.4293814294 13.4127378480 -87.0525718624
236 2 7.9724329724 8.6986375165 -87.0525718624
237 2 9.5154845155 3.9845371850 -87.0525718624
238 2 13.6302886303 15.7697880137 -87.0525718624
239 2 12.3444123444 10.9995674402 -86.6106806347
240 2 13.8874638875 6.2854671087 -86.6106806347
241 2 15.4305154305 1.5713667772 -86.6106806347
242 2 3.6004536005 13.3566176059 -86.6106806347
243 2 5.1435051435 8.6425172744 -86.6106806347
244 2 6.6865566866 3.9284169429 -86.6106806347
245 2 10.8013608014 15.7136677717 -86.6106806347
246 2 9.5154845155 10.9434471981 -86.1687894069
247 2 11.0585360585 6.2293468666 -86.1687894069
248 2 12.6015876016 1.5152465351 -86.1687894069
249 2 16.7163917164 13.3004973639 -86.1687894069
250 2 2.3145773146 8.5863970324 -86.1687894069
251 2 3.8576288576 3.8722967009 -86.1687894069
252 2 7.9724329724 15.6575475296 -86.1687894069
253 2 6.6865566866 10.8873269561 -85.7268981792
254 2 8.2296082296 6.1732266246 -85.7268981792
255 2 9.7726597727 1.4591262931 -85.7268981792
256 2 13.8874638875 13.2443771218 -85.7268981792
257 2 15.4305154305 8.5302767903 -85.7268981792
258 2 1.0287010287 3.8161764588 -85.7268981792
259 2 5.1435051435 15.6014272876 -85.7268981792
260 2 3.8576288576 10.8312067141 -85.2850069515
261 2 5.4006804007 6.1171063825 -85.2850069515
262 2 6.9437319437 1.4030060510 -85.2850069515
263 2 11.0585360585 13.1882568798 -85.2850069515
264 2 12.6015876016 8.4741565483 -85.2850069515
265 2 14.1446391446 3.7600562168 -85.2850069515
266 2 18.2594432595 15.5453070456 -85.2850069515
267 2 16.9735669736 10.7750864720 -84.8431157238
268 2 2.5717525718 6.0609861405 -84.8431157238
269 2 4.1148041148 1.3468858090 -84.8431157238
270 2 8.2296082296 13.1321366378 -84.8431157238
271 2 9.7726597727 8.4180363063 -84.8431157238
272 2 11.3157113157 3.7039359748 -84.8431157238
273 2 15.4305154305 15.4891868035 -84.8431157238
274 2 14.1446391446 10.7189662300 -84.4012244960
275 2 15.6876906877 6.0048658985 -84.4012244960
276 2 1.2858762859 1.2907655670 -84.4012244960
277 2 5.4006804007 13.0760163957 -84.4012244960
278 2 6.9437319437 8.3619160642 -84.4012244960
279 2 8.4867834868 3.6478157327 -84.4012244960
280 2 12.6015876016 15.4330665615 -84.4012244960
281 2 11.3157113157 10.6628459879 -83.9593332683
282 2 12.8587628588 5.9487456564 -83.9593332683
283 2 14.4018144018 1.2346453249 -83.9593332683
284 2 2.5717525718 13.0198961537 -83.9593332683
285 2 4.1148041148 8.3057958222 -83.9593332683
286 2 5.6578556579 3.5916954907 -83.9593332683
287 2 9.7726597727 15.3769463194 -83.9593332683
288 2 8.4867834868 10.6067257459 -83.5174420406
289 2 10.0298350298 5.8926254144 -83.5174420406
290 2 11.5728865729 1.1785250829 -83.5174420406
291 2 15.6876906877 12.9637759116 -83.5174420406
292 2 1.2858762859 8.2496755801 -83.5174420406
293 2 2.8289278289 3.5355752486 -83.5174420406
294 2 6.9437319437 15.3208260774 -83.5174420406
295 2 5.6578556579 10.5506055038 -83.0755508128
296 2 7.2009072009 5.8365051723 -83.0755508128
297 2 8.7439587440 1.1224048408 -83.0755508128
298 2 12.8587628588 12.9076556696 -83.0755508128
299 2 14.4018144018 8.1935553381 -83.0755508128
300 2 15.9448659449 3.4794550066 -83.0755508128
301 2 4.1148041148 15.2647058353 -83.0755508128
302 2 2.8289278289 10.4944852618 -82.6336595851
303 2 4.3719793720 5.7803849303 -82.6336595851
304 2 5.9150309150 1.0662845988 -82.6336595851
305 2 10.0298350298 12.8515354276 -82.6336595851
306 2 11.5728865729 8.1374350960 -82.6336595851
307 2 13.1159381159 3.4233347645 -82.6336595851
308 2 17.2307422308 15.2085855933 -82.6336595851
309 2 15.9448659449 10.4383650198 -82.1917683574
310 2 1.5430515431 5.7242646883 -82.1917683574
311 2 3.0861030861 1.0101643568 -82.1917683574
312 2 7.2009072009 12.7954151855 -82.1917683574
313 2 8.7439587440 8.0813148540 -82.1917683574
314 2 10.2870102870 3.3672145225 -82.1917683574
315 2 14.4018144018 15.1524653513 -82.1917683574
316 2 13.1159381159 10.3822447777 -81.7498771297
317 2 14.6589896590 5.6681444462 -81.7498771297
318 2 0.2571752572 0.9540441147 -81.7498771297
319 2 4.3719793720 12.7392949435 -81.7498771297
320 2 5.9150309150 8.0251946120 -81.7498771297
321 2 7.4580824581 3.3110942805 -81.7498771297
322 2 11.5728865729 15.0963451092 -81.7498771297
323 2 10.2870102870 10.3261245357 -81.3079859019
324 2 11.8300618301 5.6120242042 -81.3079859019
325 2 13.3731133731 0.8979238727 -81.3079859019
326 2 17.4879174879 12.6831747014 -81.3079859019
327 2 3.0861030861 7.9690743699 -81.3079859019
328 2 4.6291546292 3.2549740384 -81.3079859019
329 2 8.7439587440 15.0402248672 -81.3079859019
330 2 7.4580824581 10.2700042936 -80.8660946742
331 2 9.0011340011 5.5559039621 -80.8660946742
332 2 10.5441855442 0.8418036306 -80.8660946742
333 2 14.6589896590 12.6270544594 -80.8660946742
334 2 16.2020412020 7.9129541279 -80.8660946742
335 2 1.8002268002 3.1988537964 -80.8660946742
336 2 5.9150309150 14.9841046251 -80.8660946742
337 2 4.6291546292 10.2138840516 -80.4242034465
338 2 6.1722061722 5.4997837201 -80.4242034465
339 2 7.7152577153 0.7856833886 -80.4242034465
340 2 11.8300618301 12.5709342173 -80.4242034465
341 2 13.3731133731 7.8568338858 -80.4242034465
342 2 14.9161649162 3.1427335543 -80.4242034465
343 2 3.0861030861 14.9279843831 -80.4242034465
344 2 1.8002268002 10.1577638095 -79.9823122187
345 2 3.3432783433 5.4436634780 -79.9823122187
346 2 4.8863298863 0.7295631465 -79.9823122187
347 2 9.0011340011 12.5148139753 -79.9823122187
348 2 10.5441855442 7.8007136438 -79.9823122187
349 2 12.0872370872 3.0866133123 -79.9823122187
350 2 16.2020412020 14.8718641411 -79.9823122187
351 2 14.9161649162 10.1016435675 -79.5404209910
352 2 16.4592164592 5.3875432360 -79.5404209910
353 2 2.0574020574 0.6734429045 -79.5404209910
354 2 6.1722061722 12.4586937333 -79.5404209910
355 2 7.7152577153 7.7445934018 -79.5404209910
356 2 9.2583092583 3.0304930703 -79.5404209910
357 2 13.3731133731 14.8157438990 -79.5404209910
358 2 12.0872370872 10.0455233255 -79.0985297633
359 2 13.6302886303 5.3314229940 -79.0985297633
360 2 15.1733401733 0.6173226625 -79.0985297633
361 2 3.3432783433 12.4025734912 -79.0985297633
362 2 4.8863298863 7.6884731597 -79.0985297633
363 2 6.4293814294 2.9743728282 -79.0985297633
364 2 10.5441855442 14.7596236570 -79.0985297633
365 2 9.2583092583 9.9894030834 -78.6566385356
366 2 10.8013608014 5.2753027519 -78.6566385356
367 2 12.3444123444 0.5612024204 -78.6566385356
368 2 16.4592164592 12.3464532492 -78.6566385356
369 2 2.0574020574 7.6323529177 -78.6566385356
370 2 3.6004536005 2.9182525862 -78.6566385356
371 2 7.7152577153 14.7035034149 -78.6566385356
372 2 6.4293814294 9.9332828414 -78.2147473078
373 2 7.9724329724 5.2191825099 -78.2147473078
374 2 9.5154845155 0.5050821784 -78.2147473078
375 2 13.6302886303 12.2903330071 -78.2147473078
376 2 15.1733401733 7.5762326756 -78.2147473078
377 2 0.7715257715 2.8621323441 -78.2147473078
378 2 4.8863298863 14.6473831729 -78.2147473078
379 2 3.6004536005 9.8771625993 -77.7728560801
380 2 5.1435051435 5.1630622678 -77.7728560801
381 2 6.6865566866 0.4489619363 -77.7728560801
382 2 10.8013608014 12.2342127651 -77.7728560801
383 2 12.3444123444 7.5201124336 -77.7728560801
384 2 13.8874638875 2.8060121021 -77.7728560801
385 2 18.0022680023 14.5912629308 -77.7728560801
386 2 16.7163917164 9.8210423573 -77.3309648524
387 2 2.3145773146 5.1069420258 -77.3309648524
388 2 3.8576288576 0.3928416943 -77.3309648524
389 2 7.9724329724 12.1780925231 -77.3309648524
390 2 9.5154845155 7.4639921915 -77.3309648524
391 2 11.0585360585 2.7498918600 -77.3309648524
392 2 15.1733401733 14.5351426888 -77.3309648524
393 2 13.8874638875 9.7649221153 -76.8890736247
394 2 15.4305154305 5.0508217838 -76.8890736247
395 2 1.0287010287 0.3367214523 -76.8890736247
396 2 5.1435051435 12.1219722810 -76.8890736247
397 2 6.6865566866 7.4078719495 -76.8890736247
398 2 8.2296082296 2.6937716180 -76.8890736247
399 2 12.3444123444 14.4790224468 -76.8890736247
400 2 11.0585360585 9.7088018732 -76.4471823969
401 2 12.6015876016 4.9947015417 -76.4471823969
402 2 14.1446391446 0.2806012102 -76.4471823969
403 2 2.3145773146 12.0658520390 -76.4471823969
404 2 3.8576288576 7.3517517075 -76.4471823969
405 2 5.4006804007 2.6376513760 -76.4471823969
406 2 9.5154845155 14.4229022047 -76.4471823969
407 2 8.2296082296 9.6526816312 -76.0052911692
408 2 9.7726597727 4.9385812997 -76.0052911692
409 2 11.3157113157 0.2244809682 -76.0052911692
410 2 15.4305154305 12.0097317969 -76.0052911692
411 2 16.9735669736 7.2956314654 -76.0052911692
412 2 2.5717525718 2.5815311339 -76.0052911692
413 2 6.6865566866 14.3667819627 -76.0052911692
414 2 5.4006804007 9.5965613891 -75.5633999415
415 2 6.9437319437 4.8824610576 -75.5633999415
416 2 8.4867834868 0.1683607261 -75.5633999415
417 2 12.6015876016 11.9536115549 -75.5633999415
418 2 14.1446391446 7.2395112234 -75.5633999415
419 2 15.6876906877 2.5254108919 -75.5633999415
420 2 3.8576288576 14.3106617206 -75.5633999415
421 2 2.5717525718 9.5404411471 -75.1215087137
422 2 4.1148041148 4.8263408156 -75.1215087137
423 2 5.6578556579 0.1122404841 -75.1215087137
424 2 9.7726597727 11.8974913128 -75.1215087137
425 2 11.3157113157 7.1833909813 -75.1215087137
426 2 12.8587628588 2.4692906498 -75.1215087137
427 2 16.9735669736 14.2545414786 -75.1215087137
428 2 15.6876906877 9.4843209050 -74.6796174860
429 2 1.2858762859 4.7702205735 -74.6796174860
430 2 2.8289278289 0.0561202420 -74.6796174860
431 2 6.9437319437 11.8413710708 -74.6796174860
432 2 8.4867834868 7.1272707393 -74.6796174860
433 2 10.0298350298 2.4131704078 -74.6796174860
434 2 14.1446391446 14.1984212366 -74.6796174860
435 2 12.8587628588 9.4282006630 -74.2377262583
436 2 14.4018144018 4.7141003315 -74.2377262583
437 2 2.5717525718 16.4993511603 -74.2377262583
438 2 4.1148041148 11.7852508288 -74.2377262583
439 2 5.6578556579 7.0711504973 -74.2377262583
440 2 7.2009072009 2.3570501658 -74.2377262583
441 2 11.3157113157 14.1423009945 -74.2377262583
442 2 10.0298350298 9.3720804210 -73.7958350306
443 2 11.5728865729 4.6579800895 -73.7958350306
444 2 15.6876906877 16.4432309182 -73.7958350306
445 2 17.2307422308 11.7291305867 -73.7958350306
446 2 2.8289278289 7.0150302552 -73.7958350306
447 2 4.3719793720 2.3009299237 -73.7958350306
448 2 8.4867834868 14.0861807525 -73.7958350306
449 2 7.2009072009 9.3159601789 -73.3539438028
450 2 8.7439587440 4.6018598474 -73.3539438028
451 2 12.8587628588 16.3871106762 -73.3539438028
452 2 14.4018144018 11.6730103447 -73.3539438028
453 2 15.9448659449 6.9589100132 -73.3539438028
454 2 1.5430515431 2.2448096817 -73.3539438028
455 2 5.6578556579 14.0300605104 -73.3539438028
456 2 4.3719793720 9.2598399369 -72.9120525751
457 2 5.9150309150 4.5457396054 -72.9120525751
458 2 10.0298350298 16.3309904341 -72.9120525751
459 2 11.5728865729 11.6168901026 -72.9120525751
460 2 13.1159381159 6.9027897711 -72.9120525751
461 2 14.6589896590 2.1886894396 -72.9120525751
462 2 2.8289278289 13.9739402684 -72.9120525751
463 2 1.5430515431 9.2037196948 -72.4701613474
464 2 3.0861030861 4.4896193633 -72.4701613474
465 2 7.2009072009 16.2748701921 -72.4701613474
466 2 8.7439587440 11.5607698606 -72.4701613474
467 2 10.2870102870 6.8466695291 -72.4701613474
468 2 11.8300618301 2.1325691976 -72.4701613474
469 2 15.9448659449 13.9178200263 -72.4701613474
470 2 14.6589896590 9.1475994528 -72.0282701196
471 2 16.2020412020 4.4334991213 -72.0282701196
472 2 4.3719793720 16.2187499501 -72.0282701196
473 2 5.9150309150 11.5046496186 -72.0282701196
474 2 7.4580824581 6.7905492870 -72.0282701196
475 2 9.0011340011 2.0764489555 -72.0282701196
476 2 13.1159381159 13.8616997843 -72.0282701196
477 2 11.8300618301 9.0914792108 -71.5863788919
478 2 13.3731133731 4.3773788793 -71.5863788919
479 2 17.4879174879 16.1626297080 -71.5863788919
480 2 3.0861030861 11.4485293765 -71.5863788919
481 2 4.6291546292 6.7344290450 -71.5863788919
482 2 6.1722061722 2.0203287135 -71.5863788919
483 2 10.2870102870 13.8055795423 -71.5863788919
484 2 9.0011340011 9.0353589687 -71.1444876642
485 2 10.5441855442 4.3212586372 -71.1444876642
486 2 14.6589896590 16.1065094660 -71.1444876642
487 2 16.2020412020 11.3924091345 -71.1444876642
488 2 1.8002268002 6.6783088030 -71.1444876642
489 2 3.3432783433 1.9642084715 -71.1444876642
490 2 7.4580824581 13.7494593002 -71.1444876642
491 2 6.1722061722 8.9792387267 -70.7025964365
492 2 7.7152577153 4.2651383952 -70.7025964365
493 2 11.8300618301 16.0503892239 -70.7025964365
494 2 13.3731133731 11.3362888924 -70.7025964365
495 2 14.9161649162 6.6221885609 -70.7025964365
496 2 0.5143505144 1.9080882294 -70.7025964365
497 2 4.6291546292 13.6933390582 -70.7025964365
498 2 3.3432783433 8.9231184846 -70.2607052087
499 2 4.8863298863 4.2090181531 -70.2607052087
500 2 9.0011340011 15.9942689819 -70.2607052087
501 2 10.5441855442 11.2801686504 -70.2607052087
502 2 12.0872370872 6.5660683189 -70.2607052087
503 2 13.6302886303 1.8519679874 -70.2607052087
504 2 17.7450927451 13.6372188161 -70.2607052087
505 2 16.4592164592 8.8669982426 -69.8188139810
506 2 2.0574020574 4.1528979111 -69.8188139810
507 2 6.1722061722 15.9381487398 -69.8188139810
508 2 7.7152577153 11.2240484083 -69.8188139810
509 2 9.2583092583 6.5099480768 -69.8188139810
510 2 10.8013608014 1.7958477453 -69.8188139810
511 2 14.9161649162 13.5810985741 -69.8188139810
512 2 13.6302886303 8.8108780005 -69.3769227533
513 2 15.1733401733 4.0967776690 -69.3769227533
514 2 3.3432783433 15.8820284978 -69.3769227533
515 2 4.8863298863 11.1679281663 -69.3769227533
516 2 6.4293814294 6.4538278348 -69.3769227533
517 2 7.9724329724 1.7397275033 -69.3769227533
518 2 12.0872370872 13.5249783321 -69.3769227533
519 2 10.8013608014 8.7547577585 -68.9350315256
520 2 12.3444123444 4.0406574270 -68.9350315256
521 2 16.4592164592 15.8259082558 -68.9350315256
522 2 2.0574020574 11.1118079243 -68.9350315256
523 2 3.6004536005 6.3977075928 -68.9350315256
524 2 5.1435051435 1.6836072613 -68.9350315256
525 2 9.2583092583 13.4688580900 -68.9350315256
526 2 7.9724329724 8.6986375165 -68.4931402978
527 2 9.5154845155 3.9845371850 -68.4931402978
528 2 13.6302886303 15.7697880137 -68.4931402978
529 2 15.1733401733 11.0556876822 -68.4931402978
530 2 16.7163917164 6.3415873507 -68.4931402978
531 2 2.3145773146 1.6274870192 -68.4931402978
532 2 6.4293814294 13.4127378480 -68.4931402978
533 2 5.1435051435 8.6425172744 -68.0512490701
534 2 6.6865566866 3.9284169429 -68.0512490701
535 2 10.8013608014 15.7136677717 -68.0512490701
536 2 12.3444123444 10.9995674402 -68.0512490701
537 2 13.8874638875 6.2854671087 -68.0512490701
538 2 15.4305154305 1.5713667772 -68.0512490701
539 2 3.6004536005 13.3566176059 -68.0512490701
540 2 2.3145773146 8.5863970324 -67.6093578424
541 2 3.8576288576 3.8722967009 -67.6093578424
542 2 7.9724329724 15.6575475296 -67.6093578424
543 2 9.5154845155 10.9434471981 -67.6093578424
544 2 11.0585360585 6.2293468666 -67.6093578424
545 2 12.6015876016 1.5152465351 -67.6093578424
546 2 16.7163917164 13.3004973639 -67.6093578424
547 2 15.4305154305 8.5302767903 -67.1674666146
548 2 1.0287010287 3.8161764588 -67.1674666146
549 2 5.1435051435 15.6014272876 -67.1674666146
550 2 6.6865566866 10.8873269561 -67.1674666146
551 2 8.2296082296 6.1732266246 -67.1674666146
552 2 9.7726597727 1.4591262931 -67.1674666146
553 2 13.8874638875 13.2443771218 -67.1674666146
554 2 12.6015876016 8.4741565483 -66.7255753869
555 2 14.1446391446 3.7600562168 -66.7255753869
556 2 18.2594432595 15.5453070456 -66.7255753869
557 2 3.8576288576 10.8312067141 -66.7255753869
558 2 5.4006804007 6.1171063825 -66.7255753869
559 2 6.9437319437 1.4030060510 -66.7255753869
560 2 11.0585360585 13.1882568798 -66.7255753869
561 2 9.7726597727 8.4180363063 -66.2836841592
562 2 11.3157113157 3.7039359748 -66.2836841592
563 2 15.4305154305 15.4891868035 -66.2836841592
564 2 16.9735669736 10.7750864720 -66.2836841592
565 2 2.5717525718 6.0609861405 -66.2836841592
566 2 4.1148041148 1.3468858090 -66.2836841592
567 2 8.2296082296 13.1321366378 -66.2836841592
568 2 6.9437319437 8.3619160642 -65.8417929315
569 2 8.4867834868 3.6478157327 -65.8417929315
570 2 12.6015876016 15.4330665615 -65.8417929315
571 2 14.1446391446 10.7189662300 -65.8417929315
572 2 15.6876906877 6.0048658985 -65.8417929315
573 2 1.2858762859 1.2907655670 -65.8417929315
574 2 5.4006804007 13.0760163957 -65.8417929315
575 2 4.1148041148 8.3057958222 -65.3999017037
576 2 5.6578556579 3.5916954907 -65.3999017037
577 2 9.7726597727 15.3769463194 -65.3999017037
578 2 11.3157113157 10.6628459879 -65.3999017037
579 2 12.8587628588 5.9487456564 -65.3999017037
580 2 14.4018144018 1.2346453249 -65.3999017037
581 2 2.5717525718 13.0198961537 -65.3999017037
582 2 17.2307422308 8.2496755801 -64.9580104760
583 2 2.8289278289 3.5355752486 -64.9580104760
584 2 6.9437319437 15.3208260774 -64.9580104760
585 2 8.4867834868 10.6067257459 -64.9580104760
586 2 10.0298350298 5.8926254144 -64.9580104760
587 2 11.5728865729 1.1785250829 -64.9580104760
588 2 15.6876906877 12.9637759116 -64.9580104760
589 2 14.4018144018 8.1935553381 -64.5161192483
590 2 15.9448659449 3.4794550066 -64.5161192483
591 2 4.1148041148 15.2647058353 -64.5161192483
592 2 5.6578556579 10.5506055038 -64.5161192483
593 2 7.2009072009 5.8365051723 -64.5161192483
594 2 8.7439587440 1.1224048408 -64.5161192483
595 2 12.8587628588 12.9076556696 -64.5161192483
596 2 11.5728865729 8.1374350960 -64.0742280205
597 2 13.1159381159 3.4233347645 -64.0742280205
598 2 17.2307422308 15.2085855933 -64.0742280205
599 2 2.8289278289 10.4944852618 -64.0742280205
600 2 4.3719793720 5.7803849303 -64.0742280205
601 2 5.9150309150 1.0662845988 -64.0742280205
602 2 10.0298350298 12.8515354276 -64.0742280205
603 2 8.7439587440 8.0813148540 -63.6323367928
604 2 10.2870102870 3.3672145225 -63.6323367928
605 2 14.4018144018 15.1524653513 -63.6323367928
606 2 15.9448659449 10.4383650198 -63.6323367928
607 2 1.5430515431 5.7242646883 -63.6323367928
608 2 3.0861030861 1.0101643568 -63.6323367928
609 2 7.2009072009 12.7954151855 -63.6323367928
610 2 5.9150309150 8.0251946120 -63.1904455651
611 2 7.4580824581 3.3110942805 -63.1904455651
612 2 11.5728865729 15.0963451092 -63.1904455651
613 2 13.1159381159 10.3822447777 -63.1904455651
614 2 14.6589896590 5.6681444462 -63.1904455651
615 2 0.2571752572 0.9540441147 -63.1904455651
616 2 4.3719793720 12.7392949435 -63.1904455651
617 2 3.0861030861 7.9690743699 -62.7485543374
618 2 4.6291546292 3.2549740384 -62.7485543374
619 2 8.7439587440 15.0402248672 -62.7485543374
620 2 10.2870102870 10.3261245357 -62.7485543374
621 2 11.8300618301 5.6120242042 -62.7485543374
622 2 13.3731133731 0.8979238727 -62.7485543374
623 2 17.4879174879 12.6831747014 -62.7485543374
624 2 16.2020412020 7.9129541279 -62.3066631096