ITEM: TIMESTEP
0
ITEM: NUMBER OF ATOMS
1604
ITEM: BOX BOUNDS xy xz yz pp pp ff
0.0 15.619723663547637 1.0413149109031765
0.0 15.872226376772048 0.0
-79.53174002499999 79.53174002499999 0.0
ITEM: ATOMS id x y z
1 7.2892043763 10.0425420808 79.4968312044
2 1.0413149109 4.7138462815 79.3000568698
3 10.4131491090 15.2573768589 79.1032825351
4 4.1652596436 9.9286810595 78.9065082004
5 12.4957789308 4.5999852601 78.7097338658
6 7.2892043763 15.1435158375 78.5129595311
7 1.0413149109 9.8148200382 78.3161851964
8 9.3718341981 4.4861242388 78.1194108618
9 4.1652596436 15.0296548162 77.9226365271
10 12.4957789308 9.7009590168 77.7258621925
11 6.2478894654 4.3722632174 77.5290878578
12 1.0413149109 14.9157937949 77.3323135231
13 9.3718341981 9.5870979955 77.1355391885
14 3.1239447327 4.2584021961 76.9387648538
15 12.4957789308 14.8019327735 76.7419905191
16 6.2478894654 9.4732369741 76.5452161845
17 14.5784087526 4.1445411748 76.3484418498
18 9.3718341981 14.6880717522 76.1516675151
19 3.1239447327 9.3593759528 75.9548931805
20 11.4544640199 4.0306801534 75.7581188458
21 6.2478894654 14.5742107308 75.5613445111
22 14.5784087526 9.2455149315 75.3645701765
23 8.3305192872 3.9168191321 75.1677958418
24 3.1239447327 14.4603497095 74.9710215072
25 11.4544640199 9.1316539101 74.7742471725
26 5.2065745545 3.8029581108 74.5774728378
27 14.5784087526 14.3464886882 74.3806985032
28 8.3305192872 9.0177928888 74.1839241685
29 2.0826298218 3.6890970894 73.9871498338
30 11.4544640199 14.2326276668 73.7903754992
31 5.2065745545 8.9039318675 73.5936011645
32 13.5370938417 3.5752360681 73.3968268298
33 8.3305192872 14.1187666455 73.2000524952
34 2.0826298218 8.7900708461 73.0032781605
35 10.4131491090 3.4613750468 72.8065038258
36 5.2065745545 14.0049056242 72.6097294912
37 13.5370938417 8.6762098248 72.4129551565
38 7.2892043763 3.3475140254 72.2161808219
39 2.0826298218 13.8910446028 72.0194064872
40 10.4131491090 8.5623488035 71.8226321525
41 4.1652596436 3.2336530041 71.6258578179
42 13.5370938417 13.7771835815 71.4290834832
43 7.2892043763 8.4484877821 71.2323091485
44 1.0413149109 3.1197919828 71.0355348139
45 10.4131491090 13.6633225602 70.8387604792
46 4.1652596436 8.3346267608 70.6419861445
47 12.4957789308 3.0059309614 70.4452118099
48 7.2892043763 13.5494615388 70.2484374752
49 1.0413149109 8.2207657395 70.0516631405
50 9.3718341981 2.8920699401 69.8548888059
51 4.1652596436 13.4356005175 69.6581144712
52 12.4957789308 8.1069047181 69.4613401365
53 6.2478894654 2.7782089188 69.2645658019
54 1.0413149109 13.3217394962 69.0677914672
55 9.3718341981 7.9930436968 68.8710171326
56 3.1239447327 2.6643478974 68.6742427979
57 12.4957789308 13.2078784748 68.4774684632
58 6.2478894654 7.8791826755 68.2806941286
59 14.5784087526 2.5504868761 68.0839197939
60 9.3718341981 13.0940174535 67.8871454592
61 3.1239447327 7.7653216541 67.6903711246
62 11.4544640199 2.4366258548 67.4935967899
63 6.2478894654 12.9801564322 67.2968224552
64 14.5784087526 7.6514606328 67.1000481206
65 8.3305192872 2.3227648334 66.9032737859
66 3.1239447327 12.8662954108 66.7064994512
67 11.4544640199 7.5375996115 66.5097251166
68 5.2065745545 2.2089038121 66.3129507819
69 14.5784087526 12.7524343895 66.1161764473
70 8.3305192872 7.4237385901 65.9194021126
71 2.0826298218 2.0950427908 65.7226277779
72 11.4544640199 12.6385733682 65.5258534433
73 5.2065745545 7.3098775688 65.3290791086
74 13.5370938417 1.9811817694 65.1323047739
75 8.3305192872 12.5247123468 64.9355304393
76 2.0826298218 7.1960165475 64.7387561046
77 10.4131491090 1.8673207481 64.5419817699
78 5.2065745545 12.4108513255 64.3452074353
79 13.5370938417 7.0821555261 64.1484331006
80 7.2892043763 1.7534597267 63.9516587659
81 2.0826298218 12.2969903042 63.7548844313
82 10.4131491090 6.9682945048 63.5581100966
83 4.1652596436 1.6395987054 63.3613357620
84 13.5370938417 12.1831292828 63.1645614273
85 7.2892043763 6.8544334834 62.9677870926
86 1.0413149109 1.5257376841 62.7710127580
87 10.4131491090 12.0692682615 62.5742384233
88 4.1652596436 6.7405724621 62.3774640886
89 12.4957789308 1.4118766627 62.1806897540
90 7.2892043763 11.9554072401 61.9839154193
91 1.0413149109 6.6267114408 61.7871410846
92 9.3718341981 1.2980156414 61.5903667500
93 4.1652596436 11.8415462188 61.3935924153
94 12.4957789308 6.5128504194 61.1968180806
95 6.2478894654 1.1841546201 61.0000437460
96 1.0413149109 11.7276851975 60.8032694113
97 9.3718341981 6.3989893981 60.6064950766
98 3.1239447327 1.0702935987 60.4097207420
99 12.4957789308 11.6138241761 60.2129464073
100 6.2478894654 6.2851283768 60.0161720727
101 14.5784087526 0.9564325774 59.8193977380
102 9.3718341981 11.4999631548 59.6226234033
103 3.1239447327 6.1712673554 59.4258490687
104 11.4544640199 0.8425715561 59.2290747340
105 6.2478894654 11.3861021335 59.0323003993
106 14.5784087526 6.0574063341 58.8355260647
107 8.3305192872 0.7287105347 58.6387517300
108 3.1239447327 11.2722411121 58.4419773953
109 11.4544640199 5.9435453128 58.2452030607
110 5.2065745545 0.6148495134 58.0484287260
111 14.5784087526 11.1583800908 57.8516543913
112 8.3305192872 5.8296842914 57.6548800567
113 2.0826298218 0.5009884921 57.4581057220
114 11.4544640199 11.0445190695 57.2613313874
115 5.2065745545 5.7158232701 57.0645570527
116 13.5370938417 0.3871274707 56.8677827180
117 8.3305192872 10.9306580481 56.6710083834
118 2.0826298218 5.6019622488 56.4742340487
119 10.4131491090 0.2732664494 56.2774597140
120 5.2065745545 10.8167970268 56.0806853794
121 13.5370938417 5.4881012274 55.8839110447
122 7.2892043763 0.1594054281 55.6871367100
123 2.0826298218 10.7029360055 55.4903623754
124 10.4131491090 5.3742402061 55.2935880407
125 4.1652596436 0.0455444067 55.0968137060
126 13.5370938417 10.5890749841 54.9000393714
127 7.2892043763 5.2603791848 54.7032650367
128 2.0826298218 15.8039097622 54.5064907021
129 10.4131491090 10.4752139628 54.3097163674
130 4.1652596436 5.1465181634 54.1129420327
131 13.5370938417 15.6900487408 53.9161676981
132 7.2892043763 10.3613529415 53.7193933634
133 1.0413149109 5.0326571421 53.5226190287
134 10.4131491090 15.5761877195 53.3258446941
135 4.1652596436 10.2474919201 53.1290703594
136 12.4957789308 4.9187961208 52.9322960247
137 7.2892043763 15.4623266982 52.7355216901
138 1.0413149109 10.1336308988 52.5387473554
139 9.3718341981 4.8049350994 52.3419730207
140 4.1652596436 15.3484656768 52.1451986861
141 12.4957789308 10.0197698775 51.9484243514
142 6.2478894654 4.6910740781 51.7516500167
143 1.0413149109 15.2346046555 51.5548756821
144 9.3718341981 9.9059088561 51.3581013474
145 3.1239447327 4.5772130568 51.1613270128
146 12.4957789308 15.1207436342 50.9645526781
147 6.2478894654 9.7920478348 50.7677783434
148 14.5784087526 4.4633520354 50.5710040088
149 9.3718341981 15.0068826128 50.3742296741
150 3.1239447327 9.6781868135 50.1774553394
151 11.4544640199 4.3494910141 49.9806810048
152 6.2478894654 14.8930215915 49.7839066701
153 14.5784087526 9.5643257921 49.5871323354
154 8.3305192872 4.2356299927 49.3903580008
155 3.1239447327 14.7791605702 49.1935836661
156 11.4544640199 9.4504647708 48.9968093314
157 5.2065745545 4.1217689714 48.8000349968
158 14.5784087526 14.6652995488 48.6032606621
159 8.3305192872 9.3366037494 48.4064863275
160 2.0826298218 4.0079079501 48.2097119928
161 11.4544640199 14.5514385275 48.0129376581
162 5.2065745545 9.2227427281 47.8161633235
163 13.5370938417 3.8940469287 47.6193889888
164 8.3305192872 14.4375775061 47.4226146541
165 2.0826298218 9.1088817068 47.2258403195
166 10.4131491090 3.7801859074 47.0290659848
167 5.2065745545 14.3237164848 46.8322916501
168 13.5370938417 8.9950206854 46.6355173155
169 7.2892043763 3.6663248861 46.4387429808
170 2.0826298218 14.2098554635 46.2419686461
171 10.4131491090 8.8811596641 46.0451943115
172 4.1652596436 3.5524638647 45.8484199768
173 13.5370938417 14.0959944421 45.6516456422
174 7.2892043763 8.7672986428 45.4548713075
175 1.0413149109 3.4386028434 45.2580969728
176 10.4131491090 13.9821334208 45.0613226382
177 4.1652596436 8.6534376214 44.8645483035
178 12.4957789308 3.3247418221 44.6677739688
179 7.2892043763 13.8682723995 44.4709996342
180 1.0413149109 8.5395766001 44.2742252995
181 9.3718341981 3.2108808007 44.0774509648
182 4.1652596436 13.7544113781 43.8806766302
183 12.4957789308 8.4257155788 43.6839022955
184 6.2478894654 3.0970197794 43.4871279608
185 1.0413149109 13.6405503568 43.2903536262
186 9.3718341981 8.3118545574 43.0935792915
187 3.1239447327 2.9831587581 42.8968049568
188 12.4957789308 13.5266893355 42.7000306222
189 6.2478894654 8.1979935361 42.5032562875
190 14.5784087526 2.8692977367 42.3064819529
191 9.3718341981 13.4128283141 42.1097076182
192 3.1239447327 8.0841325148 41.9129332835
193 11.4544640199 2.7554367154 41.7161589489
194 6.2478894654 13.2989672928 41.5193846142
195 14.5784087526 7.9702714934 41.3226102795
196 8.3305192872 2.6415756941 41.1258359449
197 3.1239447327 13.1851062715 40.9290616102
198 11.4544640199 7.8564104721 40.7322872755
199 5.2065745545 2.5277146727 40.5355129409
200 14.5784087526 13.0712452501 40.3387386062
201 8.3305192872 7.7425494508 40.1419642715
202 2.0826298218 2.4138536514 39.9451899369
203 11.4544640199 12.9573842288 39.7484156022
204 5.2065745545 7.6286884294 39.5516412676
205 13.5370938417 2.2999926301 39.3548669329
206 8.3305192872 12.8435232075 39.1580925982
207 2.0826298218 7.5148274081 38.9613182636
208 10.4131491090 2.1861316087 38.7645439289
209 5.2065745545 12.7296621861 38.5677695942
210 13.5370938417 7.4009663868 38.3709952596
211 7.2892043763 2.0722705874 38.1742209249
212 2.0826298218 12.6158011648 37.9774465902
213 10.4131491090 7.2871053654 37.7806722556
214 4.1652596436 1.9584095661 37.5838979209
215 13.5370938417 12.5019401435 37.3871235862
216 7.2892043763 7.1732443441 37.1903492516
217 1.0413149109 1.8445485447 36.9935749169
218 10.4131491090 12.3880791221 36.7968005823
219 4.1652596436 7.0593833228 36.6000262476
220 12.4957789308 1.7306875234 36.4032519129
221 7.2892043763 12.2742181008 36.2064775783
222 1.0413149109 6.9455223014 36.0097032436
223 9.3718341981 1.6168265021 35.8129289089
224 4.1652596436 12.1603570795 35.6161545743
225 12.4957789308 6.8316612801 35.4193802396
226 6.2478894654 1.5029654807 35.2226059049
227 1.0413149109 12.0464960581 35.0258315703
228 9.3718341981 6.7178002587 34.8290572356
229 3.1239447327 1.3891044594 34.6322829009
230 12.4957789308 11.9326350368 34.4355085663
231 6.2478894654 6.6039392374 34.2387342316
232 14.5784087526 1.2752434380 34.0419598969
233 9.3718341981 11.8187740154 33.8451855623
234 3.1239447327 6.4900782161 33.6484112276
235 11.4544640199 1.1613824167 33.4516368930
236 6.2478894654 11.7049129941 33.2548625583
237 14.5784087526 6.3762171947 33.0580882236
238 8.3305192872 1.0475213954 32.8613138890
239 3.1239447327 11.5910519728 32.6645395543
240 11.4544640199 6.2623561734 32.4677652196
241 5.2065745545 0.9336603740 32.2709908850
242 14.5784087526 11.4771909514 32.0742165503
243 8.3305192872 6.1484951521 31.8774422156
244 2.0826298218 0.8197993527 31.6806678810
245 11.4544640199 11.3633299301 31.4838935463
246 5.2065745545 6.0346341307 31.2871192116
247 13.5370938417 0.7059383314 31.0903448770
248 8.3305192872 11.2494689088 30.8935705423
249 2.0826298218 5.9207731094 30.6967962077
250 10.4131491090 0.5920773100 30.5000218730
251 5.2065745545 11.1356078874 30.3032475383
252 13.5370938417 5.8069120881 30.1064732037
253 7.2892043763 0.4782162887 29.9096988690
254 2.0826298218 11.0217468661 29.7129245343
255 10.4131491090 5.6930510667 29.5161501997
256 4.1652596436 0.3643552674 29.3193758650
257 13.5370938417 10.9078858448 29.1226015303
258 7.2892043763 5.5791900454 28.9258271957
259 1.0413149109 0.2504942460 28.7290528610
260 10.4131491090 10.7940248234 28.5322785263
261 4.1652596436 5.4653290241 28.3355041917
262 12.4957789308 0.1366332247 28.1387298570
263 7.2892043763 10.6801638021 27.9419555224
264 1.0413149109 5.3514680027 27.7451811877
265 9.3718341981 0.0227722034 27.5484068530
266 4.1652596436 10.5663027808 27.3516325184
267 12.4957789308 5.2376069814 27.1548581837
268 7.2892043763 15.7811375588 26.9580838490
269 1.0413149109 10.4524417594 26.7613095144
270 9.3718341981 5.1237459601 26.5645351797
271 4.1652596436 15.6672765375 26.3677608450
272 12.4957789308 10.3385807381 26.1709865104
273 6.2478894654 5.0098849387 25.9742121757
274 1.0413149109 15.5534155161 25.7774378410
275 9.3718341981 10.2247197168 25.5806635064
276 3.1239447327 4.8960239174 25.3838891717
277 12.4957789308 15.4395544948 25.1871148370
278 6.2478894654 10.1108586954 24.9903405024
279 14.5784087526 4.7821628961 24.7935661677
280 9.3718341981 15.3256934735 24.5967918331
281 3.1239447327 9.9969976741 24.4000174984
282 11.4544640199 4.6683018747 24.2032431637
283 6.2478894654 15.2118324521 24.0064688291
284 14.5784087526 9.8831366528 23.8096944944
285 8.3305192872 4.5544408534 23.6129201597
286 3.1239447327 15.0979714308 23.4161458251
287 11.4544640199 9.7692756314 23.2193714904
288 5.2065745545 4.4405798321 23.0225971557
289 14.5784087526 14.9841104095 22.8258228211
290 8.3305192872 9.6554146101 22.6290484864
291 2.0826298218 4.3267188107 22.4322741517
292 11.4544640199 14.8702493881 22.2354998171
293 5.2065745545 9.5415535888 22.0387254824
294 13.5370938417 4.2128577894 21.8419511478
295 8.3305192872 14.7563883668 21.6451768131
296 2.0826298218 9.4276925674 21.4484024784
297 10.4131491090 4.0989967681 21.2516281438
298 5.2065745545 14.6425273455 21.0548538091
299 13.5370938417 9.3138315461 20.8580794744
300 7.2892043763 3.9851357467 20.6613051398
301 2.0826298218 14.5286663241 20.4645308051
302 10.4131491090 9.1999705248 20.2677564704
303 4.1652596436 3.8712747254 20.0709821358
304 13.5370938417 14.4148053028 19.8742078011
305 7.2892043763 9.0861095034 19.6774334664
306 1.0413149109 3.7574137040 19.4806591318
307 10.4131491090 14.3009442814 19.2838847971
308 4.1652596436 8.9722484821 19.0871104625
309 12.4957789308 3.6435526827 18.8903361278
310 7.2892043763 14.1870832601 18.6935617931
311 1.0413149109 8.8583874607 18.4967874585
312 9.3718341981 3.5296916614 18.3000131238
313 4.1652596436 14.0732222388 18.1032387891
314 12.4957789308 8.7445264394 17.9064644545
315 6.2478894654 3.4158306400 17.7096901198
316 1.0413149109 13.9593612174 17.5129157851
317 9.3718341981 8.6306654181 17.3161414505
318 3.1239447327 3.3019696187 17.1193671158
319 12.4957789308 13.8455001961 16.9225927811
320 6.2478894654 8.5168043967 16.7258184465
321 14.5784087526 3.1881085974 16.5290441118
322 9.3718341981 13.7316391748 16.3322697771
323 3.1239447327 8.4029433754 16.1354954425
324 11.4544640199 3.0742475760 15.9387211078
325 6.2478894654 13.6177781534 15.7419467732
326 14.5784087526 8.2890823541 15.5451724385
327 8.3305192872 2.9603865547 15.3483981038
328 3.1239447327 13.5039171321 15.1516237692
329 11.4544640199 8.1752213327 14.9548494345
330 5.2065745545 2.8465255334 14.7580750998
331 14.5784087526 13.3900561108 14.5613007652
332 8.3305192872 8.0613603114 14.3645264305
333 2.0826298218 2.7326645120 14.1677520958
334 11.4544640199 13.2761950894 13.9709777612
335 5.2065745545 7.9474992901 13.7742034265
336 13.5370938417 2.6188034907 13.5774290918
337 8.3305192872 13.1623340681 13.3806547572
338 2.0826298218 7.8336382687 13.1838804225
339 10.4131491090 2.5049424694 12.9871060879
340 5.2065745545 13.0484730468 12.7903317532
341 13.5370938417 7.7197772474 12.5935574185
342 7.2892043763 2.3910814480 12.3967830839
343 2.0826298218 12.9346120254 12.2000087492
344 10.4131491090 7.6059162261 12.0032344145
345 4.1652596436 2.2772204267 11.8064600799
346 13.5370938417 12.8207510041 11.6096857452
347 7.2892043763 7.4920552047 11.4129114105
348 1.0413149109 2.1633594054 11.2161370759
349 10.4131491090 12.7068899828 11.0193627412
350 4.1652596436 7.3781941834 10.8225884065
351 12.4957789308 2.0494983840 10.6258140719
352 7.2892043763 12.5930289614 10.4290397372
353 1.0413149109 7.2643331621 10.2322654026
354 9.3718341981 1.9356373627 10.0354910679
355 4.1652596436 12.4791679401 9.8387167332
356 12.4957789308 7.1504721407 9.6419423986
357 6.2478894654 1.8217763414 9.4451680639
358 1.0413149109 12.3653069188 9.2483937292
359 9.3718341981 7.0366111194 9.0516193946
360 3.1239447327 1.7079153200 8.8548450599
361 12.4957789308 12.2514458974 8.6580707252
362 6.2478894654 6.9227500981 8.4612963906
363 14.5784087526 1.5940542987 8.2645220559
364 9.3718341981 12.1375848761 8.0677477212
365 3.1239447327 6.8088890767 7.8709733866
366 11.4544640199 1.4801932774 7.6741990519
367 6.2478894654 12.0237238548 7.4774247172
368 14.5784087526 6.6950280554 7.2806503826
369 8.3305192872 1.3663322560 7.0838760479
370 3.1239447327 11.9098628334 6.8871017133
371 11.4544640199 6.5811670341 6.6903273786
372 5.2065745545 1.2524712347 6.4935530439
373 14.5784087526 11.7960018121 6.2967787093
374 8.3305192872 6.4673060127 6.1000043746
375 2.0826298218 1.1386102133 5.9032300399
376 11.4544640199 11.6821407908 5.7064557053
377 5.2065745545 6.3534449914 5.5096813706
378 13.5370938417 1.0247491920 5.3129070359
379 8.3305192872 11.5682797694 5.1161327013
380 2.0826298218 6.2395839700 4.9193583666
381 10.4131491090 0.9108881707 4.7225840319
382 5.2065745545 11.4544187481 4.5258096973
383 13.5370938417 6.1257229487 4.3290353626
384 7.2892043763 0.7970271493 4.1322610280
385 2.0826298218 11.3405577267 3.9354866933
386 10.4131491090 6.0118619274 3.7387123586
387 4.1652596436 0.6831661280 3.5419380240
388 13.5370938417 11.2266967054 3.3451636893
389 7.2892043763 5.8980009060 3.1483893546
390 1.0413149109 0.5693051067 2.9516150200
391 10.4131491090 11.1128356841 2.7548406853
392 4.1652596436 5.7841398847 2.5580663506
393 12.4957789308 0.4554440853 2.3612920160
394 7.2892043763 10.9989746627 2.1645176813
395 1.0413149109 5.6702788634 1.9677433466
396 9.3718341981 0.3415830640 1.7709690120
397 4.1652596436 10.8851136414 1.5741946773
398 12.4957789308 5.5564178420 1.3774203427
399 6.2478894654 0.2277220427 1.1806460080
400 1.0413149109 10.7712526201 0.9838716733
401 9.3718341981 5.4425568207 0.7870973387
402 3.1239447327 0.1138610213 0.5903230040
403 12.4957789308 10.6573915987 0.3935486693
404 6.2478894654 5.3286957994 0.1967743347
405 0.0000000000 0.0000000000 0.0000000000
406 9.3718341981 10.5435305774 -0.1967743347
407 3.1239447327 5.2148347780 -0.3935486693
408 12.4957789308 15.7583653554 -0.5903230040
409 6.2478894654 10.4296695561 -0.7870973387
410 14.5784087526 5.1009737567 -0.9838716733
411 9.3718341981 15.6445043341 -1.1806460080
412 3.1239447327 10.3158085347 -1.3774203427
413 11.4544640199 4.9871127354 -1.5741946773
414 6.2478894654 15.5306433128 -1.7709690120
415 14.5784087526 10.2019475134 -1.9677433466
416 8.3305192872 4.8732517140 -2.1645176813
417 3.1239447327 15.4167822914 -2.3612920160
418 11.4544640199 10.0880864921 -2.5580663506
419 5.2065745545 4.7593906927 -2.7548406853
420 14.5784087526 15.3029212701 -2.9516150200
421 8.3305192872 9.9742254707 -3.1483893546
422 2.0826298218 4.6455296714 -3.3451636893
423 11.4544640199 15.1890602488 -3.5419380240
424 5.2065745545 9.8603644494 -3.7387123586
425 13.5370938417 4.5316686500 -3.9354866933
426 8.3305192872 15.0751992274 -4.1322610280
427 2.0826298218 9.7465034281 -4.3290353626
428 10.4131491090 4.4178076287 -4.5258096973
429 5.2065745545 14.9613382061 -4.7225840319
430 13.5370938417 9.6326424067 -4.9193583666
431 7.2892043763 4.3039466074 -5.1161327013
432 2.0826298218 14.8474771848 -5.3129070359
433 10.4131491090 9.5187813854 -5.5096813706
434 4.1652596436 4.1900855860 -5.7064557053
435 13.5370938417 14.7336161634 -5.9032300399
436 7.2892043763 9.4049203641 -6.1000043746
437 1.0413149109 4.0762245647 -6.2967787093
438 10.4131491090 14.6197551421 -6.4935530439
439 4.1652596436 9.2910593427 -6.6903273786
440 12.4957789308 3.9623635434 -6.8871017133
441 7.2892043763 14.5058941208 -7.0838760479
442 1.0413149109 9.1771983214 -7.2806503826
443 9.3718341981 3.8485025220 -7.4774247172
444 4.1652596436 14.3920330994 -7.6741990519
445 12.4957789308 9.0633373001 -7.8709733866
446 6.2478894654 3.7346415007 -8.0677477212
447 1.0413149109 14.2781720781 -8.2645220559
448 9.3718341981 8.9494762787 -8.4612963906
449 3.1239447327 3.6207804793 -8.6580707252
450 12.4957789308 14.1643110568 -8.8548450599
451 6.2478894654 8.8356152574 -9.0516193946
452 14.5784087526 3.5069194580 -9.2483937292
453 9.3718341981 14.0504500354 -9.4451680639
454 3.1239447327 8.7217542360 -9.6419423986
455 11.4544640199 3.3930584367 -9.8387167332
456 6.2478894654 13.9365890141 -10.0354910679
457 14.5784087526 8.6078932147 -10.2322654026
458 8.3305192872 3.2791974153 -10.4290397372
459 3.1239447327 13.8227279927 -10.6258140719
460 11.4544640199 8.4940321934 -10.8225884065
461 5.2065745545 3.1653363940 -11.0193627412
462 14.5784087526 13.7088669714 -11.2161370759
463 8.3305192872 8.3801711720 -11.4129114105
464 2.0826298218 3.0514753727 -11.6096857452
465 11.4544640199 13.5950059501 -11.8064600799
466 5.2065745545 8.2663101507 -12.0032344145
467 13.5370938417 2.9376143513 -12.2000087492
468 8.3305192872 13.4811449287 -12.3967830839
469 2.0826298218 8.1524491294 -12.5935574185
470 10.4131491090 2.8237533300 -12.7903317532
471 5.2065745545 13.3672839074 -12.9871060879
472 13.5370938417 8.0385881080 -13.1838804225
473 7.2892043763 2.7098923087 -13.3806547572
474 2.0826298218 13.2534228861 -13.5774290918
475 10.4131491090 7.9247270867 -13.7742034265
476 4.1652596436 2.5960312873 -13.9709777612
477 13.5370938417 13.1395618647 -14.1677520958
478 7.2892043763 7.8108660654 -14.3645264305
479 1.0413149109 2.4821702660 -14.5613007652
480 10.4131491090 13.0257008434 -14.7580750998
481 4.1652596436 7.6970050440 -14.9548494345
482 12.4957789308 2.3683092447 -15.1516237692
483 7.2892043763 12.9118398221 -15.3483981038
484 1.0413149109 7.5831440227 -15.5451724385
485 9.3718341981 2.2544482233 -15.7419467732
486 4.1652596436 12.7979788007 -15.9387211078
487 12.4957789308 7.4692830014 -16.1354954425
488 6.2478894654 2.1405872020 -16.3322697771
489 1.0413149109 12.6841177794 -16.5290441118
490 9.3718341981 7.3554219800 -16.7258184465
491 3.1239447327 2.0267261807 -16.9225927811
492 12.4957789308 12.5702567581 -17.1193671158
493 6.2478894654 7.2415609587 -17.3161414505
494 14.5784087526 1.9128651593 -17.5129157851
495 9.3718341981 12.4563957367 -17.7096901198
496 3.1239447327 7.1276999374 -17.9064644545
497 11.4544640199 1.7990041380 -18.1032387891
498 6.2478894654 12.3425347154 -18.3000131238
499 14.5784087526 7.0138389160 -18.4967874585
500 8.3305192872 1.6851431167 -18.6935617931
501 3.1239447327 12.2286736941 -18.8903361278
502 11.4544640199 6.8999778947 -19.0871104625
503 5.2065745545 1.5712820953 -19.2838847971
504 14.5784087526 12.1148126727 -19.4806591318
505 8.3305192872 6.7861168734 -19.6774334664
506 2.0826298218 1.4574210740 -19.8742078011
507 11.4544640199 12.0009516514 -20.0709821358
508 5.2065745545 6.6722558520 -20.2677564704
509 13.5370938417 1.3435600527 -20.4645308051
510 8.3305192872 11.8870906301 -20.6613051398
511 2.0826298218 6.5583948307 -20.8580794744
512 10.4131491090 1.2296990313 -21.0548538091
513 5.2065745545 11.7732296087 -21.2516281438
514 13.5370938417 6.4445338094 -21.4484024784
515 7.2892043763 1.1158380100 -21.6451768131
516 2.0826298218 11.6593685874 -21.8419511478
517 10.4131491090 6.3306727880 -22.0387254824
518 4.1652596436 1.0019769886 -22.2354998171
519 13.5370938417 11.5455075661 -22.4322741517
520 7.2892043763 6.2168117667 -22.6290484864
521 1.0413149109 0.8881159673 -22.8258228211
522 10.4131491090 11.4316465447 -23.0225971557
523 4.1652596436 6.1029507453 -23.2193714904
524 12.4957789308 0.7742549460 -23.4161458251
525 7.2892043763 11.3177855234 -23.6129201597
526 1.0413149109 5.9890897240 -23.8096944944
527 9.3718341981 0.6603939246 -24.0064688291
528 4.1652596436 11.2039245020 -24.2032431637
529 12.4957789308 5.8752287027 -24.4000174984
530 6.2478894654 0.5465329033 -24.5967918331
531 1.0413149109 11.0900634807 -24.7935661677
532 9.3718341981 5.7613676813 -24.9903405024
533 3.1239447327 0.4326718820 -25.1871148370
534 12.4957789308 10.9762024594 -25.3838891717
535 6.2478894654 5.6475066600 -25.5806635064
536 14.5784087526 0.3188108606 -25.7774378410
537 9.3718341981 10.8623414380 -25.9742121757
538 3.1239447327 5.5336456387 -26.1709865104
539 11.4544640199 0.2049498393 -26.3677608450
540 6.2478894654 10.7484804167 -26.5645351797
541 14.5784087526 5.4197846173 -26.7613095144
542 8.3305192872 0.0910888180 -26.9580838490
543 3.1239447327 10.6346193954 -27.1548581837
544 11.4544640199 5.3059235960 -27.3516325184
545 6.2478894654 15.8494541734 -27.5484068530
546 14.5784087526 10.5207583740 -27.7451811877
547 8.3305192872 5.1920625747 -27.9419555224
548 3.1239447327 15.7355931521 -28.1387298570
549 11.4544640199 10.4068973527 -28.3355041917
550 5.2065745545 5.0782015533 -28.5322785263
551 14.5784087526 15.6217321307 -28.7290528610
552 8.3305192872 10.2930363314 -28.9258271957
553 2.0826298218 4.9643405320 -29.1226015303
554 11.4544640199 15.5078711094 -29.3193758650
555 5.2065745545 10.1791753100 -29.5161501997
556 13.5370938417 4.8504795107 -29.7129245343
557 8.3305192872 15.3940100881 -29.9096988690
558 2.0826298218 10.0653142887 -30.1064732037
559 10.4131491090 4.7366184893 -30.3032475383
560 5.2065745545 15.2801490667 -30.5000218730
561 13.5370938417 9.9514532674 -30.6967962077
562 7.2892043763 4.6227574680 -30.8935705423
563 2.0826298218 15.1662880454 -31.0903448770
564 10.4131491090 9.8375922460 -31.2871192116
565 4.1652596436 4.5088964467 -31.4838935463
566 13.5370938417 15.0524270241 -31.6806678810
567 7.2892043763 9.7237312247 -31.8774422156
568 1.0413149109 4.3950354253 -32.0742165503
569 10.4131491090 14.9385660027 -32.2709908850
570 4.1652596436 9.6098702034 -32.4677652196
571 12.4957789308 4.2811744040 -32.6645395543
572 7.2892043763 14.8247049814 -32.8613138890
573 1.0413149109 9.4960091820 -33.0580882236
574 9.3718341981 4.1673133827 -33.2548625583
575 4.1652596436 14.7108439601 -33.4516368930
576 12.4957789308 9.3821481607 -33.6484112276
577 6.2478894654 4.0534523613 -33.8451855623
578 1.0413149109 14.5969829387 -34.0419598969
579 9.3718341981 9.2682871394 -34.2387342316
580 3.1239447327 3.9395913400 -34.4355085663
581 12.4957789308 14.4831219174 -34.6322829009
582 6.2478894654 9.1544261180 -34.8290572356
583 14.5784087526 3.8257303187 -35.0258315703
584 9.3718341981 14.3692608961 -35.2226059049
585 3.1239447327 9.0405650967 -35.4193802396
586 11.4544640199 3.7118692973 -35.6161545743
587 6.2478894654 14.2553998747 -35.8129289089
588 14.5784087526 8.9267040754 -36.0097032436
589 8.3305192872 3.5980082760 -36.2064775783
590 3.1239447327 14.1415388534 -36.4032519129
591 11.4544640199 8.8128430540 -36.6000262476
592 5.2065745545 3.4841472546 -36.7968005823
593 14.5784087526 14.0276778321 -36.9935749169
594 8.3305192872 8.6989820327 -37.1903492516
595 2.0826298218 3.3702862333 -37.3871235862
596 11.4544640199 13.9138168107 -37.5838979209
597 5.2065745545 8.5851210113 -37.7806722556
598 13.5370938417 3.2564252120 -37.9774465902
599 8.3305192872 13.7999557894 -38.1742209249
600 2.0826298218 8.4712599900 -38.3709952596
601 10.4131491090 3.1425641906 -38.5677695942
602 5.2065745545 13.6860947680 -38.7645439289
603 13.5370938417 8.3573989687 -38.9613182636
604 7.2892043763 3.0287031693 -39.1580925982
605 2.0826298218 13.5722337467 -39.3548669329
606 10.4131491090 8.2435379473 -39.5516412676
607 4.1652596436 2.9148421480 -39.7484156022
608 13.5370938417 13.4583727254 -39.9451899369
609 7.2892043763 8.1296769260 -40.1419642715
610 1.0413149109 2.8009811266 -40.3387386062
611 10.4131491090 13.3445117040 -40.5355129409
612 4.1652596436 8.0158159047 -40.7322872755
613 12.4957789308 2.6871201053 -40.9290616102
614 7.2892043763 13.2306506827 -41.1258359449
615 1.0413149109 7.9019548833 -41.3226102795
616 9.3718341981 2.5732590840 -41.5193846142
617 4.1652596436 13.1167896614 -41.7161589489
618 12.4957789308 7.7880938620 -41.9129332835
619 6.2478894654 2.4593980626 -42.1097076182
620 1.0413149109 13.0029286400 -42.3064819529
621 9.3718341981 7.6742328407 -42.5032562875
622 3.1239447327 2.3455370413 -42.7000306222
623 12.4957789308 12.8890676187 -42.8968049568
624 6.2478894654 7.5603718193 -43.0935792915
625 14.5784087526 2.2316760200 -43.2903536262
626 9.3718341981 12.7752065974 -43.4871279608
627 3.1239447327 7.4465107980 -43.6839022955
628 11.4544640199 2.1178149986 -43.8806766302
629 6.2478894654 12.6613455760 -44.0774509648
630 14.5784087526 7.3326497767 -44.2742252995
631 8.3305192872 2.0039539773 -44.4709996342
632 3.1239447327 12.5474845547 -44.6677739688
633 11.4544640199 7.2187887553 -44.8645483035
634 5.2065745545 1.8900929560 -45.0613226382
635 14.5784087526 12.4336235334 -45.2580969728
636 8.3305192872 7.1049277340 -45.4548713075
637 2.0826298218 1.7762319346 -45.6516456422
638 11.4544640199 12.3197625120 -45.8484199768
639 5.2065745545 6.9910667127 -46.0451943115
640 13.5370938417 1.6623709133 -46.2419686461
641 8.3305192872 12.2059014907 -46.4387429808
642 2.0826298218 6.8772056913 -46.6355173155
643 10.4131491090 1.5485098920 -46.8322916501
644 5.2065745545 12.0920404694 -47.0290659848
645 13.5370938417 6.7633446700 -47.2258403195
646 7.2892043763 1.4346488706 -47.4226146541
647 2.0826298218 11.9781794480 -47.6193889888
648 10.4131491090 6.6494836487 -47.8161633235
649 4.1652596436 1.3207878493 -48.0129376581
650 13.5370938417 11.8643184267 -48.2097119928
651 7.2892043763 6.5356226273 -48.4064863275
652 1.0413149109 1.2069268280 -48.6032606621
653 10.4131491090 11.7504574054 -48.8000349968
654 4.1652596436 6.4217616060 -48.9968093314
655 12.4957789308 1.0930658066 -49.1935836661
656 7.2892043763 11.6365963840 -49.3903580008
657 1.0413149109 6.3079005847 -49.5871323354
658 9.3718341981 0.9792047853 -49.7839066701
659 4.1652596436 11.5227353627 -49.9806810048
660 12.4957789308 6.1940395633 -50.1774553394
661 6.2478894654 0.8653437640 -50.3742296741
662 1.0413149109 11.4088743414 -50.5710040088
663 9.3718341981 6.0801785420 -50.7677783434
664 3.1239447327 0.7514827426 -50.9645526781
665 12.4957789308 11.2950133200 -51.1613270128